
     Program PWSCF v.7.3.1 starts on 29Mar2026 at 13:43:26 

     This program is part of the open-source Quantum ESPRESSO suite
     for quantum simulation of materials; please cite
         "P. Giannozzi et al., J. Phys.:Condens. Matter 21 395502 (2009);
         "P. Giannozzi et al., J. Phys.:Condens. Matter 29 465901 (2017);
         "P. Giannozzi et al., J. Chem. Phys. 152 154105 (2020);
          URL http://www.quantum-espresso.org", 
     in publications or presentations arising from this work. More details at
     http://www.quantum-espresso.org/quote

     Parallel version (MPI & OpenMP), running on       8 processor cores
     Number of MPI processes:                 1
     Threads/MPI process:                     8

     MPI processes distributed on     1 nodes
     1171 MiB available memory on the printing compute node when the environment starts
 
     Waiting for input...
     Reading input from standard input

     Current dimensions of program PWSCF are:
     Max number of different atomic species (ntypx) = 10
     Max number of k-points (npk) =  40000
     Max angular momentum in pseudopotentials (lmaxx) =  4

     IMPORTANT: XC functional enforced from input :
     Exchange-correlation= XC-000I-000I-000I-428L-000I-000I
                           (   0   0   0 428   0   0   0)
     EXX-fraction              =        0.25
     Any further DFT definition will be discarded
     Please, verify this is what you really want


     gamma-point specific algorithms are used
 
     Subspace diagonalization in iterative solution of the eigenvalue problem:
     a serial algorithm will be used

     EXX: q-point mesh:     1    1    1
     EXX: grid of k+q points same as grid of k-points
 
     G-vector sticks info
     --------------------
     sticks:   dense  smooth     PW     G-vecs:    dense   smooth      PW
     Sum        2449    2449    609                91047    91047   11363
 
     Using Slab Decomposition
 


     bravais-lattice index     =            1
     lattice parameter (alat)  =      16.0000  a.u.
     unit-cell volume          =    4096.0000 (a.u.)^3
     number of atoms/cell      =            5
     number of atomic types    =            2
     number of electrons       =         8.00
     number of Kohn-Sham states=            4
     kinetic-energy cutoff     =      30.0000  Ry
     charge density cutoff     =     120.0000  Ry
     cutoff for Fock operator  =     120.0000  Ry
     scf convergence threshold =      1.0E-06
     mixing beta               =       0.7000
     number of iterations used =            8  plain     mixing
     Exchange-correlation= XC-000I-000I-000I-428L-000I-000I
                           (   0   0   0 428   0   0   0)
     EXX-fraction              =        0.25

     celldm(1)=  16.000000  celldm(2)=   0.000000  celldm(3)=   0.000000
     celldm(4)=   0.000000  celldm(5)=   0.000000  celldm(6)=   0.000000

     crystal axes: (cart. coord. in units of alat)
               a(1) = (   1.000000   0.000000   0.000000 )  
               a(2) = (   0.000000   1.000000   0.000000 )  
               a(3) = (   0.000000   0.000000   1.000000 )  

     reciprocal axes: (cart. coord. in units 2 pi/alat)
               b(1) = (  1.000000  0.000000  0.000000 )  
               b(2) = (  0.000000  1.000000  0.000000 )  
               b(3) = (  0.000000  0.000000  1.000000 )  


     PseudoPot. # 1 for C  read from file:
     ./C.pbe-hgh.UPF
     MD5 check sum: ca26ff84b356733038fc2f5c468d1892
     Pseudo is Norm-conserving, Zval =  4.0
     Generated in analytical, separable form
     Using radial grid of 1073 points,  1 beta functions with: 
                l(1) =   0

     PseudoPot. # 2 for H  read from file:
     ./H.pbe-hgh.UPF
     MD5 check sum: 50ae4f52d34cf16cdfed4bce9c5a191e
     Pseudo is Norm-conserving, Zval =  1.0
     Generated in analytical, separable form
     Using radial grid of  929 points,  0 beta functions with: 

     atomic species   valence    mass     pseudopotential
     C                 4.00    12.00000     C ( 1.00)
     H                 1.00     1.00000     H ( 1.00)

     No symmetry found



   Cartesian axes

     site n.     atom                  positions (alat units)
         1        C      tau(   1) = (   0.4570011   0.5063129   0.5247731  )
         2        H      tau(   2) = (   0.5859985   0.5063141   0.5247731  )
         3        H      tau(   3) = (   0.4140027   0.3952430   0.5743206  )
         4        H      tau(   4) = (   0.4140027   0.5189398   0.4038106  )
         5        H      tau(   5) = (   0.4140015   0.6047570   0.5961894  )

     number of k points=     1
                       cart. coord. in units 2pi/alat
        k(    1) = (   0.0000000   0.0000000   0.0000000), wk =   2.0000000

     Dense  grid:    45524 G-vectors     FFT dimensions: (  60,  60,  60)

     Estimated max dynamical RAM per process >      53.98 MB

     WARNING: libxc functional with ID  428 depends
      on external parameters: check the user_guide of
      QE if you need to modify them or to check their
      default values.

     WARNING: libxc functional with ID  428 is CAM, 
     long range exx is not available yet (if needed).
     EXX: ACE will be initialized later

     Initial potential from superposition of free atoms

     starting charge       7.9999, renormalised to       8.0000

     negative rho (up, down):  1.257E-02 0.000E+00
     Starting wfcs are    8 randomized atomic wfcs

     total cpu time spent up to now is        0.6 secs

     per-process dynamical memory:    21.9 Mb

     Self-consistent Calculation

     iteration #  1     ecut=    30.00 Ry     beta= 0.70
     Davidson diagonalization with overlap
     ethr =  1.00E-02,  avg # of iterations =  2.0

     negative rho (up, down):  3.516E-03 0.000E+00

     total cpu time spent up to now is        1.1 secs

     total energy              =     -14.58078937 Ry
     estimated scf accuracy    <       0.30376959 Ry

     iteration #  2     ecut=    30.00 Ry     beta= 0.70
     Davidson diagonalization with overlap
     ethr =  3.80E-03,  avg # of iterations =  2.0

     negative rho (up, down):  1.540E-03 0.000E+00

     total cpu time spent up to now is        1.5 secs

     total energy              =     -14.64901626 Ry
     estimated scf accuracy    <       0.07587669 Ry

     iteration #  3     ecut=    30.00 Ry     beta= 0.70
     Davidson diagonalization with overlap
     ethr =  9.48E-04,  avg # of iterations =  2.0

     negative rho (up, down):  3.793E-06 0.000E+00

     total cpu time spent up to now is        1.9 secs

     total energy              =     -14.66161115 Ry
     estimated scf accuracy    <       0.00158148 Ry

     iteration #  4     ecut=    30.00 Ry     beta= 0.70
     Davidson diagonalization with overlap
     ethr =  1.98E-05,  avg # of iterations =  2.0

     negative rho (up, down):  2.322E-05 0.000E+00

     total cpu time spent up to now is        2.3 secs

     total energy              =     -14.66222852 Ry
     estimated scf accuracy    <       0.00055049 Ry

     iteration #  5     ecut=    30.00 Ry     beta= 0.70
     Davidson diagonalization with overlap
     ethr =  6.88E-06,  avg # of iterations =  1.0

     negative rho (up, down):  1.072E-07 0.000E+00

     total cpu time spent up to now is        2.7 secs

     total energy              =     -14.66207793 Ry
     estimated scf accuracy    <       0.00024781 Ry

     iteration #  6     ecut=    30.00 Ry     beta= 0.70
     Davidson diagonalization with overlap
     ethr =  3.10E-06,  avg # of iterations =  3.0

     total cpu time spent up to now is        3.2 secs

     total energy              =     -14.66202906 Ry
     estimated scf accuracy    <       0.00096302 Ry

     iteration #  7     ecut=    30.00 Ry     beta= 0.70
     Davidson diagonalization with overlap
     ethr =  3.10E-06,  avg # of iterations =  2.0

     total cpu time spent up to now is        3.6 secs

     total energy              =     -14.66213242 Ry
     estimated scf accuracy    <       0.00003304 Ry

     iteration #  8     ecut=    30.00 Ry     beta= 0.70
     Davidson diagonalization with overlap
     ethr =  4.13E-07,  avg # of iterations =  2.0

     total cpu time spent up to now is        4.0 secs

     total energy              =     -14.66214844 Ry
     estimated scf accuracy    <       0.00001565 Ry

     iteration #  9     ecut=    30.00 Ry     beta= 0.70
     Davidson diagonalization with overlap
     ethr =  1.96E-07,  avg # of iterations =  2.0

     total cpu time spent up to now is        4.4 secs

     End of self-consistent calculation

          k = 0.0000 0.0000 0.0000 (  5682 PWs)   bands (ev):

   -15.1341  -7.5385  -7.5383  -7.5373

     highest occupied level (ev):    -7.5373

!    total energy              =     -14.66215055 Ry
     estimated scf accuracy    <       0.00000007 Ry

     convergence has been achieved in   9 iterations

     Using ACE for calculation of exact exchange

     EXX grid:    45524 G-vectors     FFT dimensions: (  60,  60,  60)
     ACE projected onto     4 (nbndproj) and applied to     4 (nbnd) bands

     EXX: now go back to refine exchange calculation

     total cpu time spent up to now is        4.9 secs

     per-process dynamical memory:    31.1 Mb

     Self-consistent Calculation

     iteration #  1     ecut=    30.00 Ry     beta= 0.70
     Davidson diagonalization with overlap
     ethr =  1.96E-07,  avg # of iterations =  6.0

     total cpu time spent up to now is        5.4 secs

     total energy              =     -15.85869244 Ry
     estimated scf accuracy    <       0.03240487 Ry

     iteration #  2     ecut=    30.00 Ry     beta= 0.70
     Davidson diagonalization with overlap
     ethr =  4.05E-04,  avg # of iterations =  2.0

     total cpu time spent up to now is        5.8 secs

     total energy              =     -15.86859709 Ry
     estimated scf accuracy    <       0.00679354 Ry

     iteration #  3     ecut=    30.00 Ry     beta= 0.70
     Davidson diagonalization with overlap
     ethr =  8.49E-05,  avg # of iterations =  2.0

     total cpu time spent up to now is        6.2 secs

     total energy              =     -15.86950767 Ry
     estimated scf accuracy    <       0.00009804 Ry

     iteration #  4     ecut=    30.00 Ry     beta= 0.70
     Davidson diagonalization with overlap
     ethr =  1.23E-06,  avg # of iterations =  2.0

     total cpu time spent up to now is        6.7 secs

     total energy              =     -15.86954382 Ry
     estimated scf accuracy    <       0.00004266 Ry

     iteration #  5     ecut=    30.00 Ry     beta= 0.70
     Davidson diagonalization with overlap
     ethr =  5.33E-07,  avg # of iterations =  2.0

     total cpu time spent up to now is        7.2 secs

     total energy              =     -15.86955439 Ry
     estimated scf accuracy    <       0.00000177 Ry

     iteration #  6     ecut=    30.00 Ry     beta= 0.70
     Davidson diagonalization with overlap
     ethr =  2.21E-08,  avg # of iterations =  1.0

     total cpu time spent up to now is        7.6 secs

     total energy              =     -15.86955376 Ry
     estimated scf accuracy    <       0.00000128 Ry

     iteration #  7     ecut=    30.00 Ry     beta= 0.70
     Davidson diagonalization with overlap
     ethr =  1.60E-08,  avg # of iterations =  2.0

     total cpu time spent up to now is        8.1 secs

     End of self-consistent calculation

          k = 0.0000 0.0000 0.0000 (  5682 PWs)   bands (ev):

   -18.8139 -10.3069 -10.3065 -10.3054

     highest occupied level (ev):   -10.3054

!    total energy              =     -15.86955391 Ry
     estimated scf accuracy    <       0.00000003 Ry

     convergence has been achieved in   7 iterations

     Using ACE for calculation of exact exchange
     ACE projected onto     4 (nbndproj) and applied to     4 (nbnd) bands

     total energy              =     -15.87171949 Ry
     Harris-Foulkes estimate   =     -15.87171951 Ry
     est. exchange err (dexx)  =       0.00216558 Ry
     - averaged Fock potential =       2.41243658 Ry
     + Fock energy (ACE)       =      -1.22771900 Ry

     EXX: now go back to refine exchange calculation

     total cpu time spent up to now is        8.2 secs

     per-process dynamical memory:    31.1 Mb

     Self-consistent Calculation

     iteration #  1     ecut=    30.00 Ry     beta= 0.70
     Davidson diagonalization with overlap
     ethr =  1.60E-08,  avg # of iterations =  4.0

     total cpu time spent up to now is        8.7 secs

     total energy              =     -15.87189588 Ry
     estimated scf accuracy    <       0.00026419 Ry

     iteration #  2     ecut=    30.00 Ry     beta= 0.70
     Davidson diagonalization with overlap
     ethr =  3.30E-06,  avg # of iterations =  2.0

     total cpu time spent up to now is        9.2 secs

     total energy              =     -15.87196460 Ry
     estimated scf accuracy    <       0.00004574 Ry

     iteration #  3     ecut=    30.00 Ry     beta= 0.70
     Davidson diagonalization with overlap
     ethr =  5.72E-07,  avg # of iterations =  2.0

     total cpu time spent up to now is        9.6 secs

     End of self-consistent calculation

          k = 0.0000 0.0000 0.0000 (  5682 PWs)   bands (ev):

   -18.7835 -10.2877 -10.2873 -10.2862

     highest occupied level (ev):   -10.2862

!    total energy              =     -15.87197135 Ry
     estimated scf accuracy    <       0.00000051 Ry

     convergence has been achieved in   3 iterations

     Using ACE for calculation of exact exchange
     ACE projected onto     4 (nbndproj) and applied to     4 (nbnd) bands

     total energy              =     -15.87200452 Ry
     Harris-Foulkes estimate   =     -15.87200492 Ry
     est. exchange err (dexx)  =       0.00003317 Ry
     - averaged Fock potential =       2.45977045 Ry
     + Fock energy (ACE)       =      -1.23208461 Ry

     EXX: now go back to refine exchange calculation

     total cpu time spent up to now is        9.7 secs

     per-process dynamical memory:    31.1 Mb

     Self-consistent Calculation

     iteration #  1     ecut=    30.00 Ry     beta= 0.70
     Davidson diagonalization with overlap
     ethr =  5.72E-07,  avg # of iterations =  2.0

     Threshold (ethr) on eigenvalues was too large:
     Diagonalizing with lowered threshold

     Davidson diagonalization with overlap
     ethr =  3.54E-08,  avg # of iterations =  1.0

     total cpu time spent up to now is       10.2 secs

     total energy              =     -15.87200766 Ry
     estimated scf accuracy    <       0.00000288 Ry

     iteration #  2     ecut=    30.00 Ry     beta= 0.70
     Davidson diagonalization with overlap
     ethr =  3.60E-08,  avg # of iterations =  2.0

     total cpu time spent up to now is       10.6 secs

     End of self-consistent calculation

          k = 0.0000 0.0000 0.0000 (  5682 PWs)   bands (ev):

   -18.7752 -10.2815 -10.2811 -10.2801

     highest occupied level (ev):   -10.2801

!    total energy              =     -15.87200822 Ry
     estimated scf accuracy    <       0.00000043 Ry

     convergence has been achieved in   2 iterations

     Using ACE for calculation of exact exchange
     ACE projected onto     4 (nbndproj) and applied to     4 (nbnd) bands

!!   total energy              =     -15.87200880 Ry
     Harris-Foulkes estimate   =     -15.87200914 Ry
     est. exchange err (dexx)  =       0.00000058 Ry
     - averaged Fock potential =       2.46459691 Ry
     + Fock energy (ACE)       =      -1.23251287 Ry

     EXX self-consistency reached
     Message from routine punch:
     Nothing written, as per user request (disk_io='none')
 
     init_run     :      2.14s CPU      0.56s WALL (       1 calls)
     electrons    :     39.81s CPU      9.27s WALL (       4 calls)

     Called by init_run:
     aceinit0     :      0.00s CPU      0.00s WALL (       1 calls)
     wfcinit      :      0.42s CPU      0.05s WALL (       1 calls)
     potinit      :      1.55s CPU      0.44s WALL (       1 calls)
     hinit0       :      0.16s CPU      0.04s WALL (       1 calls)

     Called by electrons:
     c_bands      :      7.11s CPU      1.07s WALL (      22 calls)
     sum_band     :      2.00s CPU      0.33s WALL (      22 calls)
     v_of_rho     :     32.47s CPU      8.42s WALL (      23 calls)
     mix_rho      :      1.00s CPU      0.18s WALL (      22 calls)

     Called by c_bands:
     init_us_2    :      0.00s CPU      0.02s WALL (      45 calls)
     regterg      :      7.02s CPU      1.06s WALL (      22 calls)

     Called by *egterg:
     rdiaghg      :      0.20s CPU      0.02s WALL (      66 calls)
     h_psi        :      6.98s CPU      1.04s WALL (      71 calls)
     g_psi        :      0.00s CPU      0.00s WALL (      48 calls)

     Called by h_psi:
     h_psi:calbec :      0.00s CPU      0.01s WALL (      71 calls)
     vloc_psi     :      6.98s CPU      1.01s WALL (      71 calls)
     add_vuspsi   :      0.00s CPU      0.00s WALL (      71 calls)

     General routines
     calbec       :      0.00s CPU      0.01s WALL (     132 calls)
     fft          :      1.98s CPU      0.39s WALL (     179 calls)
     ffts         :      0.48s CPU      0.06s WALL (      22 calls)
     fftw         :      6.66s CPU      1.01s WALL (     332 calls)
     fftc         :      1.02s CPU      0.18s WALL (      64 calls)
     fftcw        :      0.78s CPU      0.13s WALL (      32 calls)
 
     Parallel routines

     EXX routines
     exx_grid     :      0.00s CPU      0.00s WALL (       1 calls)
     exxinit      :      0.55s CPU      0.08s WALL (       4 calls)
     vexx         :      2.70s CPU      0.46s WALL (       4 calls)
     matcalc      :      0.00s CPU      0.00s WALL (      61 calls)
     aceupdate    :      0.00s CPU      0.00s WALL (       4 calls)
     vexxace      :      0.00s CPU      0.01s WALL (      50 calls)
     aceinit      :      2.70s CPU      0.46s WALL (       4 calls)
 
     PWSCF        :     46.81s CPU     10.79s WALL

 
   This run was terminated on:  13:43:37  29Mar2026            

=------------------------------------------------------------------------------=
   JOB DONE.
=------------------------------------------------------------------------------=
