
     Program PWSCF v.7.3.1 starts on 15May2025 at 10: 7:13 

     This program is part of the open-source Quantum ESPRESSO suite
     for quantum simulation of materials; please cite
         "P. Giannozzi et al., J. Phys.:Condens. Matter 21 395502 (2009);
         "P. Giannozzi et al., J. Phys.:Condens. Matter 29 465901 (2017);
         "P. Giannozzi et al., J. Chem. Phys. 152 154105 (2020);
          URL http://www.quantum-espresso.org", 
     in publications or presentations arising from this work. More details at
     http://www.quantum-espresso.org/quote

     Parallel version (MPI & OpenMP), running on       1 processor cores
     Number of MPI processes:                 1
     Threads/MPI process:                     1

     MPI processes distributed on     1 nodes
     224019 MiB available memory on the printing compute node when the environment starts
 
     Waiting for input...
     Reading input from standard input

     Current dimensions of program PWSCF are:
     Max number of different atomic species (ntypx) = 10
     Max number of k-points (npk) =  40000
     Max angular momentum in pseudopotentials (lmaxx) =  4

     IMPORTANT: XC functional enforced from input :
     Exchange-correlation= XC-000I-000I-000I-000I-497L-498L
                           (   0   0   0   0   0 497 498)
     Any further DFT definition will be discarded
     Please, verify this is what you really want

 
     Subspace diagonalization in iterative solution of the eigenvalue problem:
     a serial algorithm will be used

 
     G-vector sticks info
     --------------------
     sticks:   dense  smooth     PW     G-vecs:    dense   smooth      PW
     Sum        2449    2449    609                91047    91047   11363
 
     Using Slab Decomposition
 


     bravais-lattice index     =            1
     lattice parameter (alat)  =      16.0000  a.u.
     unit-cell volume          =    4096.0000 (a.u.)^3
     number of atoms/cell      =            5
     number of atomic types    =            2
     number of electrons       =         8.00
     number of Kohn-Sham states=            4
     kinetic-energy cutoff     =      30.0000  Ry
     charge density cutoff     =     120.0000  Ry
     scf convergence threshold =      1.0E-06
     mixing beta               =       0.7000
     number of iterations used =            8  plain     mixing
     Exchange-correlation= XC-000I-000I-000I-000I-497L-498L
                           (   0   0   0   0   0 497 498)

     celldm(1)=  16.000000  celldm(2)=   0.000000  celldm(3)=   0.000000
     celldm(4)=   0.000000  celldm(5)=   0.000000  celldm(6)=   0.000000

     crystal axes: (cart. coord. in units of alat)
               a(1) = (   1.000000   0.000000   0.000000 )  
               a(2) = (   0.000000   1.000000   0.000000 )  
               a(3) = (   0.000000   0.000000   1.000000 )  

     reciprocal axes: (cart. coord. in units 2 pi/alat)
               b(1) = (  1.000000  0.000000  0.000000 )  
               b(2) = (  0.000000  1.000000  0.000000 )  
               b(3) = (  0.000000  0.000000  1.000000 )  


     PseudoPot. # 1 for C  read from file:
     ./C.pbe-hgh.UPF
     MD5 check sum: ca26ff84b356733038fc2f5c468d1892
     Pseudo is Norm-conserving, Zval =  4.0
     Generated in analytical, separable form
     Using radial grid of 1073 points,  1 beta functions with: 
                l(1) =   0

     PseudoPot. # 2 for H  read from file:
     ./H.pbe-hgh.UPF
     MD5 check sum: 50ae4f52d34cf16cdfed4bce9c5a191e
     Pseudo is Norm-conserving, Zval =  1.0
     Generated in analytical, separable form
     Using radial grid of  929 points,  0 beta functions with: 

     atomic species   valence    mass     pseudopotential
     C                 4.00    12.00000     C ( 1.00)
     H                 1.00     1.00000     H ( 1.00)

     No symmetry found



   Cartesian axes

     site n.     atom                  positions (alat units)
         1        C      tau(   1) = (   0.4570011   0.5063129   0.5247731  )
         2        H      tau(   2) = (   0.5859985   0.5063141   0.5247731  )
         3        H      tau(   3) = (   0.4140027   0.3952430   0.5743206  )
         4        H      tau(   4) = (   0.4140027   0.5189398   0.4038106  )
         5        H      tau(   5) = (   0.4140015   0.6047570   0.5961894  )

     number of k points=     1
                       cart. coord. in units 2pi/alat
        k(    1) = (   0.0000000   0.0000000   0.0000000), wk =   2.0000000

     Dense  grid:    91047 G-vectors     FFT dimensions: (  60,  60,  60)

     Estimated max dynamical RAM per process >      95.15 MB

     WARNING: libxc functional with ID  497 depends
      on external parameters: check the user_guide of
      QE if you need to modify them or to check their
      default values.

     WARNING: libxc functional with ID  498 depends
      on external parameters: check the user_guide of
      QE if you need to modify them or to check their
      default values.

     Initial potential from superposition of free atoms

     starting charge       7.9999, renormalised to       8.0000

     negative rho (up,down):  1.257E-02 0.000E+00
     Starting wfcs are    8 randomized atomic wfcs

     total cpu time spent up to now is        0.5 secs

     per-process dynamical memory:    20.5 Mb

     Self-consistent Calculation

     iteration #  1     ecut=    30.00 Ry     beta= 0.70
     Davidson diagonalization with overlap
     c_bands:  4 eigenvalues not converged
     ethr =  1.00E-02,  avg # of iterations = 20.0

     negative rho (up,down):  5.209E-06 0.000E+00

     total cpu time spent up to now is        1.6 secs

     total energy              =     170.06093988 Ry
     estimated scf accuracy    <     371.67906748 Ry

     iteration #  2     ecut=    30.00 Ry     beta= 0.70
     Davidson diagonalization with overlap
     ethr =  1.00E-02,  avg # of iterations = 13.0

     negative rho (up,down):  2.907E-06 0.000E+00

     total cpu time spent up to now is        2.1 secs

     total energy              =     -20.05636636 Ry
     estimated scf accuracy    <     201.08797249 Ry

     iteration #  3     ecut=    30.00 Ry     beta= 0.70
     Davidson diagonalization with overlap
     ethr =  1.00E-02,  avg # of iterations =  2.0

     negative rho (up,down):  1.697E-06 0.000E+00

     total cpu time spent up to now is        2.4 secs

     total energy              =     -17.04768172 Ry
     estimated scf accuracy    <      66.75979614 Ry

     iteration #  4     ecut=    30.00 Ry     beta= 0.70
     Davidson diagonalization with overlap
     ethr =  1.00E-02,  avg # of iterations =  2.0

     negative rho (up,down):  1.029E-06 0.000E+00

     total cpu time spent up to now is        2.6 secs

     total energy              =     -16.42337837 Ry
     estimated scf accuracy    <      24.77094936 Ry

     iteration #  5     ecut=    30.00 Ry     beta= 0.70
     Davidson diagonalization with overlap
     ethr =  1.00E-02,  avg # of iterations =  1.0

     negative rho (up,down):  7.213E-07 0.000E+00

     total cpu time spent up to now is        2.9 secs

     total energy              =     -15.67705604 Ry
     estimated scf accuracy    <      10.80836017 Ry

     iteration #  6     ecut=    30.00 Ry     beta= 0.70
     Davidson diagonalization with overlap
     ethr =  1.00E-02,  avg # of iterations =  2.0

     negative rho (up,down):  6.803E-03 0.000E+00

     total cpu time spent up to now is        3.1 secs

     total energy              =     -15.85755409 Ry
     estimated scf accuracy    <       0.09878108 Ry

     iteration #  7     ecut=    30.00 Ry     beta= 0.70
     Davidson diagonalization with overlap
     ethr =  1.23E-03,  avg # of iterations =  1.0

     negative rho (up,down):  6.383E-07 0.000E+00

     total cpu time spent up to now is        3.4 secs

     total energy              =     -15.85244021 Ry
     estimated scf accuracy    <       0.05896559 Ry

     iteration #  8     ecut=    30.00 Ry     beta= 0.70
     Davidson diagonalization with overlap
     ethr =  7.37E-04,  avg # of iterations =  1.0

     negative rho (up,down):  1.721E-07 0.000E+00

     total cpu time spent up to now is        3.6 secs

     total energy              =     -15.84951143 Ry
     estimated scf accuracy    <       0.03954397 Ry

     iteration #  9     ecut=    30.00 Ry     beta= 0.70
     Davidson diagonalization with overlap
     ethr =  4.94E-04,  avg # of iterations =  1.0

     negative rho (up,down):  2.499E-08 0.000E+00

     total cpu time spent up to now is        3.9 secs

     total energy              =     -15.85007881 Ry
     estimated scf accuracy    <       0.02600983 Ry

     iteration # 10     ecut=    30.00 Ry     beta= 0.70
     Davidson diagonalization with overlap
     ethr =  3.25E-04,  avg # of iterations =  1.0

     negative rho (up,down):  7.991E-08 0.000E+00

     total cpu time spent up to now is        4.1 secs

     total energy              =     -15.85029634 Ry
     estimated scf accuracy    <       0.01765119 Ry

     iteration # 11     ecut=    30.00 Ry     beta= 0.70
     Davidson diagonalization with overlap
     ethr =  2.21E-04,  avg # of iterations =  2.0

     negative rho (up,down):  6.415E-08 0.000E+00

     total cpu time spent up to now is        4.4 secs

     total energy              =     -15.85190472 Ry
     estimated scf accuracy    <       0.00009064 Ry

     iteration # 12     ecut=    30.00 Ry     beta= 0.70
     Davidson diagonalization with overlap
     ethr =  1.13E-06,  avg # of iterations =  3.0

     negative rho (up,down):  9.696E-08 0.000E+00

     total cpu time spent up to now is        4.7 secs

     total energy              =     -15.85192198 Ry
     estimated scf accuracy    <       0.00018072 Ry

     iteration # 13     ecut=    30.00 Ry     beta= 0.70
     Davidson diagonalization with overlap
     ethr =  1.13E-06,  avg # of iterations =  2.0

     negative rho (up,down):  7.554E-08 0.000E+00

     total cpu time spent up to now is        5.0 secs

     total energy              =     -15.85187420 Ry
     estimated scf accuracy    <       0.00007523 Ry

     iteration # 14     ecut=    30.00 Ry     beta= 0.70
     Davidson diagonalization with overlap
     ethr =  9.40E-07,  avg # of iterations =  2.0

     negative rho (up,down):  1.078E-07 0.000E+00

     total cpu time spent up to now is        5.2 secs

     total energy              =     -15.85206471 Ry
     estimated scf accuracy    <       0.00011306 Ry

     iteration # 15     ecut=    30.00 Ry     beta= 0.70
     Davidson diagonalization with overlap
     ethr =  9.40E-07,  avg # of iterations =  2.0

     negative rho (up,down):  4.046E-08 0.000E+00

     total cpu time spent up to now is        5.5 secs

     total energy              =     -15.85209898 Ry
     estimated scf accuracy    <       0.00006390 Ry

     iteration # 16     ecut=    30.00 Ry     beta= 0.70
     Davidson diagonalization with overlap
     ethr =  7.99E-07,  avg # of iterations =  3.0

     total cpu time spent up to now is        5.8 secs

     total energy              =     -15.85212341 Ry
     estimated scf accuracy    <       0.00037849 Ry

     iteration # 17     ecut=    30.00 Ry     beta= 0.70
     Davidson diagonalization with overlap
     ethr =  7.99E-07,  avg # of iterations =  1.0

     total cpu time spent up to now is        6.1 secs

     total energy              =     -15.85212022 Ry
     estimated scf accuracy    <       0.00029120 Ry

     iteration # 18     ecut=    30.00 Ry     beta= 0.70
     Davidson diagonalization with overlap
     ethr =  7.99E-07,  avg # of iterations =  1.0

     total cpu time spent up to now is        6.3 secs

     total energy              =     -15.85210929 Ry
     estimated scf accuracy    <       0.00024868 Ry

     iteration # 19     ecut=    30.00 Ry     beta= 0.70
     Davidson diagonalization with overlap
     ethr =  7.99E-07,  avg # of iterations =  1.0

     negative rho (up,down):  6.402E-08 0.000E+00

     total cpu time spent up to now is        6.6 secs

     total energy              =     -15.85211028 Ry
     estimated scf accuracy    <       0.00011423 Ry

     iteration # 20     ecut=    30.00 Ry     beta= 0.70
     Davidson diagonalization with overlap
     ethr =  7.99E-07,  avg # of iterations =  1.0

     total cpu time spent up to now is        6.8 secs

     total energy              =     -15.85209983 Ry
     estimated scf accuracy    <       0.00011943 Ry

     iteration # 21     ecut=    30.00 Ry     beta= 0.70
     Davidson diagonalization with overlap
     ethr =  7.99E-07,  avg # of iterations =  2.0

     total cpu time spent up to now is        7.0 secs

     End of self-consistent calculation

          k = 0.0000 0.0000 0.0000 ( 11363 PWs)   bands (ev):

   -17.7607  -9.4642  -9.4630  -9.4625

     highest occupied level (ev):    -9.4625

!    total energy              =     -15.85210669 Ry
     estimated scf accuracy    <       0.00000049 Ry

     The total energy is the sum of the following terms:
     one-electron contribution =     -36.50186009 Ry
     hartree contribution      =      19.10965977 Ry
     xc contribution           =      -6.31556030 Ry
     ewald contribution        =       7.85565393 Ry

     convergence has been achieved in  21 iterations
     Message from routine punch:
     Nothing written, as per user request (disk_io='none')
 
     init_run     :      0.40s CPU      0.50s WALL (       1 calls)
     electrons    :      6.46s CPU      6.50s WALL (       1 calls)

     Called by init_run:
     wfcinit      :      0.12s CPU      0.13s WALL (       1 calls)
     potinit      :      0.20s CPU      0.24s WALL (       1 calls)
     hinit0       :      0.05s CPU      0.09s WALL (       1 calls)

     Called by electrons:
     c_bands      :      2.77s CPU      2.78s WALL (      21 calls)
     sum_band     :      0.48s CPU      0.48s WALL (      21 calls)
     v_of_rho     :      2.66s CPU      2.71s WALL (      22 calls)
     mix_rho      :      0.65s CPU      0.67s WALL (      21 calls)

     Called by c_bands:
     init_us_2    :      0.02s CPU      0.02s WALL (      43 calls)
     cegterg      :      2.76s CPU      2.77s WALL (      21 calls)

     Called by *egterg:
     cdiaghg      :      0.00s CPU      0.00s WALL (      85 calls)
     h_psi        :      2.80s CPU      2.81s WALL (      86 calls)
     g_psi        :      0.01s CPU      0.01s WALL (      64 calls)

     Called by h_psi:
     h_psi:calbec :      0.00s CPU      0.00s WALL (      86 calls)
     vloc_psi     :      0.70s CPU      0.71s WALL (      86 calls)
     add_vuspsi   :      0.00s CPU      0.00s WALL (      86 calls)
     h_psi_meta   :      2.09s CPU      2.09s WALL (      86 calls)

     General routines
     calbec       :      0.00s CPU      0.00s WALL (      86 calls)
     fft          :      0.20s CPU      0.24s WALL (     261 calls)
     ffts         :      0.03s CPU      0.03s WALL (      42 calls)
     fftw         :      2.40s CPU      2.40s WALL (    3000 calls)
     interpolate  :      0.01s CPU      0.01s WALL (      22 calls)
 
     Parallel routines
 
     PWSCF        :      6.88s CPU      7.03s WALL

 
   This run was terminated on:  10: 7:20  15May2025            

=------------------------------------------------------------------------------=
   JOB DONE.
=------------------------------------------------------------------------------=
