
     Program PWSCF v.7.3.1 starts on 11Dec2025 at 21:29:27 

     This program is part of the open-source Quantum ESPRESSO suite
     for quantum simulation of materials; please cite
         "P. Giannozzi et al., J. Phys.:Condens. Matter 21 395502 (2009);
         "P. Giannozzi et al., J. Phys.:Condens. Matter 29 465901 (2017);
         "P. Giannozzi et al., J. Chem. Phys. 152 154105 (2020);
          URL http://www.quantum-espresso.org", 
     in publications or presentations arising from this work. More details at
     http://www.quantum-espresso.org/quote

     Parallel version (MPI & OpenMP), running on       8 processor cores
     Number of MPI processes:                 1
     Threads/MPI process:                     8

     MPI processes distributed on     1 nodes
     1055 MiB available memory on the printing compute node when the environment starts
 
     Waiting for input...
     Reading input from standard input

     Current dimensions of program PWSCF are:
     Max number of different atomic species (ntypx) = 10
     Max number of k-points (npk) =  40000
     Max angular momentum in pseudopotentials (lmaxx) =  4

     IMPORTANT: XC functional enforced from input :
     Exchange-correlation= HF
                           (   5   0   0   0   0   0   0)
     EXX-fraction              =        1.00
     Any further DFT definition will be discarded
     Please, verify this is what you really want


     gamma-point specific algorithms are used
 
     Subspace diagonalization in iterative solution of the eigenvalue problem:
     a serial algorithm will be used

     EXX: q-point mesh:     1    1    1
     EXX: grid of k+q points same as grid of k-points
 
     G-vector sticks info
     --------------------
     sticks:   dense  smooth     PW     G-vecs:    dense   smooth      PW
     Sum        2449    2449    609                91047    91047   11363
 
     Using Slab Decomposition
 


     bravais-lattice index     =            1
     lattice parameter (alat)  =      16.0000  a.u.
     unit-cell volume          =    4096.0000 (a.u.)^3
     number of atoms/cell      =            5
     number of atomic types    =            2
     number of electrons       =         8.00
     number of Kohn-Sham states=            4
     kinetic-energy cutoff     =      30.0000  Ry
     charge density cutoff     =     120.0000  Ry
     cutoff for Fock operator  =     120.0000  Ry
     scf convergence threshold =      1.0E-06
     mixing beta               =       0.7000
     number of iterations used =            8  plain     mixing
     Exchange-correlation= HF
                           (   5   0   0   0   0   0   0)
     EXX-fraction              =        1.00

     celldm(1)=  16.000000  celldm(2)=   0.000000  celldm(3)=   0.000000
     celldm(4)=   0.000000  celldm(5)=   0.000000  celldm(6)=   0.000000

     crystal axes: (cart. coord. in units of alat)
               a(1) = (   1.000000   0.000000   0.000000 )  
               a(2) = (   0.000000   1.000000   0.000000 )  
               a(3) = (   0.000000   0.000000   1.000000 )  

     reciprocal axes: (cart. coord. in units 2 pi/alat)
               b(1) = (  1.000000  0.000000  0.000000 )  
               b(2) = (  0.000000  1.000000  0.000000 )  
               b(3) = (  0.000000  0.000000  1.000000 )  


     PseudoPot. # 1 for C  read from file:
     ./C.pbe-hgh.UPF
     MD5 check sum: ca26ff84b356733038fc2f5c468d1892
     Pseudo is Norm-conserving, Zval =  4.0
     Generated in analytical, separable form
     Using radial grid of 1073 points,  1 beta functions with: 
                l(1) =   0

     PseudoPot. # 2 for H  read from file:
     ./H.pbe-hgh.UPF
     MD5 check sum: 50ae4f52d34cf16cdfed4bce9c5a191e
     Pseudo is Norm-conserving, Zval =  1.0
     Generated in analytical, separable form
     Using radial grid of  929 points,  0 beta functions with: 

     atomic species   valence    mass     pseudopotential
     C                 4.00    12.00000     C ( 1.00)
     H                 1.00     1.00000     H ( 1.00)

     No symmetry found


                                    s                        frac. trans.

      isym =  1     identity                                     

 cryst.   s( 1) = (     1          0          0      )
                  (     0          1          0      )
                  (     0          0          1      )

 cart.    s( 1) = (  1.0000000  0.0000000  0.0000000 )
                  (  0.0000000  1.0000000  0.0000000 )
                  (  0.0000000  0.0000000  1.0000000 )


     point group C_1 (1)    
     there are  1 classes
     the character table:

       E    
A      1.00

     the symmetry operations in each class and the name of the first element:

     E        1
          identity                                               

   Cartesian axes

     site n.     atom                  positions (alat units)
         1        C      tau(   1) = (   0.4570011   0.5063129   0.5247731  )
         2        H      tau(   2) = (   0.5859985   0.5063141   0.5247731  )
         3        H      tau(   3) = (   0.4140027   0.3952430   0.5743206  )
         4        H      tau(   4) = (   0.4140027   0.5189398   0.4038106  )
         5        H      tau(   5) = (   0.4140015   0.6047570   0.5961894  )

   Crystallographic axes

     site n.     atom                  positions (cryst. coord.)
         1        C      tau(   1) = (  0.4570011  0.5063129  0.5247731  )
         2        H      tau(   2) = (  0.5859985  0.5063141  0.5247731  )
         3        H      tau(   3) = (  0.4140027  0.3952430  0.5743206  )
         4        H      tau(   4) = (  0.4140027  0.5189398  0.4038106  )
         5        H      tau(   5) = (  0.4140015  0.6047570  0.5961894  )

     number of k points=     1
                       cart. coord. in units 2pi/alat
        k(    1) = (   0.0000000   0.0000000   0.0000000), wk =   2.0000000

                       cryst. coord.
        k(    1) = (   0.0000000   0.0000000   0.0000000), wk =   2.0000000

     Dense  grid:    45524 G-vectors     FFT dimensions: (  60,  60,  60)

     Dynamical RAM for                 wfc:       0.35 MB

     Dynamical RAM for     wfc (w. buffer):       0.35 MB

     Dynamical RAM for                 EXX:      17.00 MB

     Dynamical RAM for           str. fact:       1.39 MB

     Dynamical RAM for           local pot:       0.00 MB

     Dynamical RAM for          nlocal pot:       0.09 MB

     Dynamical RAM for                qrad:       0.02 MB

     Dynamical RAM for          rho,v,vnew:       7.03 MB

     Dynamical RAM for               rhoin:       2.34 MB

     Dynamical RAM for            rho*nmix:      11.11 MB

     Dynamical RAM for           G-vectors:       2.95 MB

     Dynamical RAM for          h,s,v(r/c):       0.00 MB

     Dynamical RAM for          <psi|beta>:       0.00 MB

     Dynamical RAM for                 psi:       0.69 MB

     Dynamical RAM for                hpsi:       0.69 MB

     Dynamical RAM for      wfcinit/wfcrot:       1.39 MB

     Estimated static dynamical RAM per process >      41.48 MB

     Estimated max dynamical RAM per process >      53.98 MB
     EXX: ACE will be initialized later

     Initial potential from superposition of free atoms

     starting charge       7.9999, renormalised to       8.0000

     negative rho (up, down):  1.257E-02 0.000E+00
     Starting wfcs are    8 randomized atomic wfcs

     total cpu time spent up to now is        0.3 secs

     per-process dynamical memory:    22.2 Mb

     Self-consistent Calculation

     iteration #  1     ecut=    30.00 Ry     beta= 0.70
     Davidson diagonalization with overlap

---- Real-time Memory Report at c_bands before calling an iterative solver
            78 MiB given to the printing process from OS
            21 MiB allocation reported by mallinfo(arena+hblkhd)
          1021 MiB available memory on the node where the printing process lives
------------------
     ethr =  1.00E-02,  avg # of iterations =  2.0

     negative rho (up, down):  3.583E-03 0.000E+00

     total cpu time spent up to now is        0.4 secs

     total energy              =     -14.76472761 Ry
     estimated scf accuracy    <       0.42363251 Ry

     iteration #  2     ecut=    30.00 Ry     beta= 0.70
     Davidson diagonalization with overlap

---- Real-time Memory Report at c_bands before calling an iterative solver
            97 MiB given to the printing process from OS
            21 MiB allocation reported by mallinfo(arena+hblkhd)
           998 MiB available memory on the node where the printing process lives
------------------
     ethr =  5.30E-03,  avg # of iterations =  2.0

     negative rho (up, down):  1.614E-03 0.000E+00

     total cpu time spent up to now is        0.5 secs

     total energy              =     -14.86899935 Ry
     estimated scf accuracy    <       0.10601394 Ry

     iteration #  3     ecut=    30.00 Ry     beta= 0.70
     Davidson diagonalization with overlap

---- Real-time Memory Report at c_bands before calling an iterative solver
            99 MiB given to the printing process from OS
            21 MiB allocation reported by mallinfo(arena+hblkhd)
           998 MiB available memory on the node where the printing process lives
------------------
     ethr =  1.33E-03,  avg # of iterations =  2.0

     negative rho (up, down):  2.415E-05 0.000E+00

     total cpu time spent up to now is        0.6 secs

     total energy              =     -14.88382106 Ry
     estimated scf accuracy    <       0.00273749 Ry

     iteration #  4     ecut=    30.00 Ry     beta= 0.70
     Davidson diagonalization with overlap

---- Real-time Memory Report at c_bands before calling an iterative solver
           100 MiB given to the printing process from OS
            21 MiB allocation reported by mallinfo(arena+hblkhd)
           984 MiB available memory on the node where the printing process lives
------------------
     ethr =  3.42E-05,  avg # of iterations =  2.0

     negative rho (up, down):  1.083E-05 0.000E+00

     total cpu time spent up to now is        0.6 secs

     total energy              =     -14.88484493 Ry
     estimated scf accuracy    <       0.00131910 Ry

     iteration #  5     ecut=    30.00 Ry     beta= 0.70
     Davidson diagonalization with overlap

---- Real-time Memory Report at c_bands before calling an iterative solver
           102 MiB given to the printing process from OS
            21 MiB allocation reported by mallinfo(arena+hblkhd)
           983 MiB available memory on the node where the printing process lives
------------------
     ethr =  1.65E-05,  avg # of iterations =  1.0

     negative rho (up, down):  1.142E-06 0.000E+00

     total cpu time spent up to now is        0.7 secs

     total energy              =     -14.88464225 Ry
     estimated scf accuracy    <       0.00040957 Ry

     iteration #  6     ecut=    30.00 Ry     beta= 0.70
     Davidson diagonalization with overlap

---- Real-time Memory Report at c_bands before calling an iterative solver
           103 MiB given to the printing process from OS
            21 MiB allocation reported by mallinfo(arena+hblkhd)
           987 MiB available memory on the node where the printing process lives
------------------
     ethr =  5.12E-06,  avg # of iterations =  3.0

     total cpu time spent up to now is        0.8 secs

     total energy              =     -14.88442145 Ry
     estimated scf accuracy    <       0.00204776 Ry

     iteration #  7     ecut=    30.00 Ry     beta= 0.70
     Davidson diagonalization with overlap

---- Real-time Memory Report at c_bands before calling an iterative solver
           105 MiB given to the printing process from OS
            21 MiB allocation reported by mallinfo(arena+hblkhd)
           970 MiB available memory on the node where the printing process lives
------------------
     ethr =  5.12E-06,  avg # of iterations =  2.0

     total cpu time spent up to now is        0.9 secs

     total energy              =     -14.88474332 Ry
     estimated scf accuracy    <       0.00001160 Ry

     iteration #  8     ecut=    30.00 Ry     beta= 0.70
     Davidson diagonalization with overlap

---- Real-time Memory Report at c_bands before calling an iterative solver
           106 MiB given to the printing process from OS
            21 MiB allocation reported by mallinfo(arena+hblkhd)
           970 MiB available memory on the node where the printing process lives
------------------
     ethr =  1.45E-07,  avg # of iterations =  3.0

     total cpu time spent up to now is        0.9 secs

     total energy              =     -14.88474471 Ry
     estimated scf accuracy    <       0.00006934 Ry

     iteration #  9     ecut=    30.00 Ry     beta= 0.70
     Davidson diagonalization with overlap

---- Real-time Memory Report at c_bands before calling an iterative solver
           107 MiB given to the printing process from OS
            21 MiB allocation reported by mallinfo(arena+hblkhd)
           972 MiB available memory on the node where the printing process lives
------------------
     ethr =  1.45E-07,  avg # of iterations =  2.0

     total cpu time spent up to now is        1.0 secs

     End of self-consistent calculation

          k = 0.0000 0.0000 0.0000 (  5682 PWs)   bands (ev):

   -15.4942  -7.8473  -7.8469  -7.8460

     occupation numbers 
     1.0000   1.0000   1.0000   1.0000

     highest occupied level (ev):    -7.8460

!    total energy              =     -14.88475463 Ry
     estimated scf accuracy    <       0.00000065 Ry

     convergence has been achieved in   9 iterations

     Using ACE for calculation of exact exchange

     EXX grid:    45524 G-vectors     FFT dimensions: (  60,  60,  60)
     ACE projected onto     4 (nbndproj) and applied to     4 (nbnd) bands

     EXX: now go back to refine exchange calculation

     total cpu time spent up to now is        1.2 secs

     per-process dynamical memory:    31.4 Mb

     Self-consistent Calculation

     iteration #  1     ecut=    30.00 Ry     beta= 0.70
     Davidson diagonalization with overlap

---- Real-time Memory Report at c_bands before calling an iterative solver
           133 MiB given to the printing process from OS
            30 MiB allocation reported by mallinfo(arena+hblkhd)
           980 MiB available memory on the node where the printing process lives
------------------
     ethr =  1.45E-07,  avg # of iterations =  5.0

     total cpu time spent up to now is        1.3 secs

     total energy              =     -14.00030612 Ry
     estimated scf accuracy    <       0.00277655 Ry

     iteration #  2     ecut=    30.00 Ry     beta= 0.70
     Davidson diagonalization with overlap

---- Real-time Memory Report at c_bands before calling an iterative solver
           133 MiB given to the printing process from OS
            30 MiB allocation reported by mallinfo(arena+hblkhd)
           968 MiB available memory on the node where the printing process lives
------------------
     ethr =  3.47E-05,  avg # of iterations =  2.0

     total cpu time spent up to now is        1.3 secs

     total energy              =     -14.00068912 Ry
     estimated scf accuracy    <       0.00007610 Ry

     iteration #  3     ecut=    30.00 Ry     beta= 0.70
     Davidson diagonalization with overlap

---- Real-time Memory Report at c_bands before calling an iterative solver
           133 MiB given to the printing process from OS
            30 MiB allocation reported by mallinfo(arena+hblkhd)
           961 MiB available memory on the node where the printing process lives
------------------
     ethr =  9.51E-07,  avg # of iterations =  2.0

     total cpu time spent up to now is        1.4 secs

     total energy              =     -14.00071100 Ry
     estimated scf accuracy    <       0.00001016 Ry

     iteration #  4     ecut=    30.00 Ry     beta= 0.70
     Davidson diagonalization with overlap

---- Real-time Memory Report at c_bands before calling an iterative solver
           133 MiB given to the printing process from OS
            30 MiB allocation reported by mallinfo(arena+hblkhd)
           961 MiB available memory on the node where the printing process lives
------------------
     ethr =  1.27E-07,  avg # of iterations =  2.0

     total cpu time spent up to now is        1.5 secs

     End of self-consistent calculation

          k = 0.0000 0.0000 0.0000 (  5682 PWs)   bands (ev):

   -20.5820  -9.6033  -9.6022  -9.6012

     occupation numbers 
     1.0000   1.0000   1.0000   1.0000

     highest occupied level (ev):    -9.6012

!    total energy              =     -14.00071287 Ry
     estimated scf accuracy    <       0.00000012 Ry

     convergence has been achieved in   4 iterations

     Using ACE for calculation of exact exchange
     ACE projected onto     4 (nbndproj) and applied to     4 (nbnd) bands

     total energy              =     -14.00429805 Ry
     Harris-Foulkes estimate   =     -14.00429817 Ry
     est. exchange err (dexx)  =       0.00358518 Ry
     - averaged Fock potential =       8.79312355 Ry
     + Fock energy (ACE)       =      -4.43537887 Ry

     EXX: now go back to refine exchange calculation

     total cpu time spent up to now is        1.6 secs

     per-process dynamical memory:    32.0 Mb

     Self-consistent Calculation

     iteration #  1     ecut=    30.00 Ry     beta= 0.70
     Davidson diagonalization with overlap

---- Real-time Memory Report at c_bands before calling an iterative solver
           135 MiB given to the printing process from OS
            31 MiB allocation reported by mallinfo(arena+hblkhd)
           956 MiB available memory on the node where the printing process lives
------------------
     ethr =  1.27E-07,  avg # of iterations =  4.0

     total cpu time spent up to now is        1.7 secs

     total energy              =     -14.00558490 Ry
     estimated scf accuracy    <       0.00038509 Ry

     iteration #  2     ecut=    30.00 Ry     beta= 0.70
     Davidson diagonalization with overlap

---- Real-time Memory Report at c_bands before calling an iterative solver
           135 MiB given to the printing process from OS
            31 MiB allocation reported by mallinfo(arena+hblkhd)
           963 MiB available memory on the node where the printing process lives
------------------
     ethr =  4.81E-06,  avg # of iterations =  2.0

     total cpu time spent up to now is        1.7 secs

     total energy              =     -14.00563754 Ry
     estimated scf accuracy    <       0.00000492 Ry

     iteration #  3     ecut=    30.00 Ry     beta= 0.70
     Davidson diagonalization with overlap

---- Real-time Memory Report at c_bands before calling an iterative solver
           135 MiB given to the printing process from OS
            31 MiB allocation reported by mallinfo(arena+hblkhd)
           961 MiB available memory on the node where the printing process lives
------------------
     ethr =  6.15E-08,  avg # of iterations =  2.0

     total cpu time spent up to now is        1.8 secs

     End of self-consistent calculation

          k = 0.0000 0.0000 0.0000 (  5682 PWs)   bands (ev):

   -20.6047  -9.6702  -9.6692  -9.6682

     occupation numbers 
     1.0000   1.0000   1.0000   1.0000

     highest occupied level (ev):    -9.6682

!    total energy              =     -14.00563894 Ry
     estimated scf accuracy    <       0.00000008 Ry

     convergence has been achieved in   3 iterations

     Using ACE for calculation of exact exchange
     ACE projected onto     4 (nbndproj) and applied to     4 (nbnd) bands

     total energy              =     -14.00619079 Ry
     Harris-Foulkes estimate   =     -14.00619088 Ry
     est. exchange err (dexx)  =       0.00055185 Ry
     - averaged Fock potential =       8.89314770 Ry
     + Fock energy (ACE)       =      -4.45832069 Ry

     EXX: now go back to refine exchange calculation

     total cpu time spent up to now is        1.9 secs

     per-process dynamical memory:    32.0 Mb

     Self-consistent Calculation

     iteration #  1     ecut=    30.00 Ry     beta= 0.70
     Davidson diagonalization with overlap

---- Real-time Memory Report at c_bands before calling an iterative solver
           135 MiB given to the printing process from OS
            31 MiB allocation reported by mallinfo(arena+hblkhd)
           972 MiB available memory on the node where the printing process lives
------------------
     ethr =  6.15E-08,  avg # of iterations =  4.0

     total cpu time spent up to now is        2.0 secs

     total energy              =     -14.00641573 Ry
     estimated scf accuracy    <       0.00008227 Ry

     iteration #  2     ecut=    30.00 Ry     beta= 0.70
     Davidson diagonalization with overlap

---- Real-time Memory Report at c_bands before calling an iterative solver
           135 MiB given to the printing process from OS
            31 MiB allocation reported by mallinfo(arena+hblkhd)
           979 MiB available memory on the node where the printing process lives
------------------
     ethr =  1.03E-06,  avg # of iterations =  2.0

     total cpu time spent up to now is        2.1 secs

     total energy              =     -14.00642976 Ry
     estimated scf accuracy    <       0.00000257 Ry

     iteration #  3     ecut=    30.00 Ry     beta= 0.70
     Davidson diagonalization with overlap

---- Real-time Memory Report at c_bands before calling an iterative solver
           135 MiB given to the printing process from OS
            31 MiB allocation reported by mallinfo(arena+hblkhd)
           979 MiB available memory on the node where the printing process lives
------------------
     ethr =  3.22E-08,  avg # of iterations =  2.0

     total cpu time spent up to now is        2.1 secs

     End of self-consistent calculation

          k = 0.0000 0.0000 0.0000 (  5682 PWs)   bands (ev):

   -20.6126  -9.6992  -9.6982  -9.6971

     occupation numbers 
     1.0000   1.0000   1.0000   1.0000

     highest occupied level (ev):    -9.6971

!    total energy              =     -14.00643046 Ry
     estimated scf accuracy    <       0.00000012 Ry

     convergence has been achieved in   3 iterations

     Using ACE for calculation of exact exchange
     ACE projected onto     4 (nbndproj) and applied to     4 (nbnd) bands

     total energy              =     -14.00653790 Ry
     Harris-Foulkes estimate   =     -14.00653802 Ry
     est. exchange err (dexx)  =       0.00010744 Ry
     - averaged Fock potential =       8.92477638 Ry
     + Fock energy (ACE)       =      -4.46656313 Ry

     EXX: now go back to refine exchange calculation

     total cpu time spent up to now is        2.3 secs

     per-process dynamical memory:    32.0 Mb

     Self-consistent Calculation

     iteration #  1     ecut=    30.00 Ry     beta= 0.70
     Davidson diagonalization with overlap

---- Real-time Memory Report at c_bands before calling an iterative solver
           135 MiB given to the printing process from OS
            31 MiB allocation reported by mallinfo(arena+hblkhd)
           976 MiB available memory on the node where the printing process lives
------------------
     ethr =  3.22E-08,  avg # of iterations =  4.0

     total cpu time spent up to now is        2.4 secs

     total energy              =     -14.00658202 Ry
     estimated scf accuracy    <       0.00001841 Ry

     iteration #  2     ecut=    30.00 Ry     beta= 0.70
     Davidson diagonalization with overlap

---- Real-time Memory Report at c_bands before calling an iterative solver
           135 MiB given to the printing process from OS
            31 MiB allocation reported by mallinfo(arena+hblkhd)
           977 MiB available memory on the node where the printing process lives
------------------
     ethr =  2.30E-07,  avg # of iterations =  2.0

     total cpu time spent up to now is        2.4 secs

     End of self-consistent calculation

          k = 0.0000 0.0000 0.0000 (  5682 PWs)   bands (ev):

   -20.6254  -9.7203  -9.7193  -9.7182

     occupation numbers 
     1.0000   1.0000   1.0000   1.0000

     highest occupied level (ev):    -9.7182

!    total energy              =     -14.00658551 Ry
     estimated scf accuracy    <       0.00000086 Ry

     convergence has been achieved in   2 iterations

     Using ACE for calculation of exact exchange
     ACE projected onto     4 (nbndproj) and applied to     4 (nbnd) bands

     total energy              =     -14.00660772 Ry
     Harris-Foulkes estimate   =     -14.00660858 Ry
     est. exchange err (dexx)  =       0.00002221 Ry
     - averaged Fock potential =       8.93697863 Ry
     + Fock energy (ACE)       =      -4.47043770 Ry

     EXX: now go back to refine exchange calculation

     total cpu time spent up to now is        2.5 secs

     per-process dynamical memory:    32.0 Mb

     Self-consistent Calculation

     iteration #  1     ecut=    30.00 Ry     beta= 0.70
     Davidson diagonalization with overlap

---- Real-time Memory Report at c_bands before calling an iterative solver
           135 MiB given to the printing process from OS
            31 MiB allocation reported by mallinfo(arena+hblkhd)
           971 MiB available memory on the node where the printing process lives
------------------
     ethr =  2.30E-07,  avg # of iterations =  2.0

     total cpu time spent up to now is        2.6 secs

     total energy              =     -14.00661649 Ry
     estimated scf accuracy    <       0.00000508 Ry

     iteration #  2     ecut=    30.00 Ry     beta= 0.70
     Davidson diagonalization with overlap

---- Real-time Memory Report at c_bands before calling an iterative solver
           135 MiB given to the printing process from OS
            31 MiB allocation reported by mallinfo(arena+hblkhd)
           971 MiB available memory on the node where the printing process lives
------------------
     ethr =  6.35E-08,  avg # of iterations =  2.0

     total cpu time spent up to now is        2.7 secs

     End of self-consistent calculation

          k = 0.0000 0.0000 0.0000 (  5682 PWs)   bands (ev):

   -20.6250  -9.7244  -9.7234  -9.7223

     occupation numbers 
     1.0000   1.0000   1.0000   1.0000

     highest occupied level (ev):    -9.7223

!    total energy              =     -14.00661753 Ry
     estimated scf accuracy    <       0.00000032 Ry

     convergence has been achieved in   2 iterations

     Using ACE for calculation of exact exchange
     ACE projected onto     4 (nbndproj) and applied to     4 (nbnd) bands

     total energy              =     -14.00662204 Ry
     Harris-Foulkes estimate   =     -14.00662236 Ry
     est. exchange err (dexx)  =       0.00000451 Ry
     - averaged Fock potential =       8.94214443 Ry
     + Fock energy (ACE)       =      -4.47171124 Ry

     EXX: now go back to refine exchange calculation

     total cpu time spent up to now is        2.8 secs

     per-process dynamical memory:    32.0 Mb

     Self-consistent Calculation

     iteration #  1     ecut=    30.00 Ry     beta= 0.70
     Davidson diagonalization with overlap

---- Real-time Memory Report at c_bands before calling an iterative solver
           135 MiB given to the printing process from OS
            31 MiB allocation reported by mallinfo(arena+hblkhd)
           964 MiB available memory on the node where the printing process lives
------------------
     ethr =  6.35E-08,  avg # of iterations =  2.0

     total cpu time spent up to now is        2.8 secs

     total energy              =     -14.00662382 Ry
     estimated scf accuracy    <       0.00000160 Ry

     iteration #  2     ecut=    30.00 Ry     beta= 0.70
     Davidson diagonalization with overlap

---- Real-time Memory Report at c_bands before calling an iterative solver
           135 MiB given to the printing process from OS
            31 MiB allocation reported by mallinfo(arena+hblkhd)
           963 MiB available memory on the node where the printing process lives
------------------
     ethr =  2.00E-08,  avg # of iterations =  2.0

     total cpu time spent up to now is        2.9 secs

     End of self-consistent calculation

          k = 0.0000 0.0000 0.0000 (  5682 PWs)   bands (ev):

   -20.6247  -9.7262  -9.7253  -9.7241

     occupation numbers 
     1.0000   1.0000   1.0000   1.0000

     highest occupied level (ev):    -9.7241

!    total energy              =     -14.00662422 Ry
     estimated scf accuracy    <       0.00000013 Ry

     convergence has been achieved in   2 iterations

     Using ACE for calculation of exact exchange
     ACE projected onto     4 (nbndproj) and applied to     4 (nbnd) bands

!!   total energy              =     -14.00662517 Ry
     Harris-Foulkes estimate   =     -14.00662530 Ry
     est. exchange err (dexx)  =       0.00000094 Ry
     - averaged Fock potential =       8.94384664 Ry
     + Fock energy (ACE)       =      -4.47213634 Ry

     EXX self-consistency reached

     Writing all to output data dir ./ch4_hf.save/ :
     XML data file, charge density, pseudopotentials, collected wavefunctions
 
     init_run     :      0.59s CPU      0.18s WALL (       1 calls)
     electrons    :     11.66s CPU      1.93s WALL (       7 calls)

     Called by init_run:
     aceinit0     :      0.00s CPU      0.00s WALL (       1 calls)
     wfcinit      :      0.22s CPU      0.06s WALL (       1 calls)
     wfcinit:atom :      0.00s CPU      0.00s WALL (       1 calls)
     wfcinit:wfcr :      0.22s CPU      0.05s WALL (       1 calls)
     potinit      :      0.23s CPU      0.05s WALL (       1 calls)
     hinit0       :      0.12s CPU      0.06s WALL (       1 calls)

     Called by electrons:
     c_bands      :      7.42s CPU      1.19s WALL (      25 calls)
     sum_band     :      1.83s CPU      0.32s WALL (      25 calls)
     v_of_rho     :      0.94s CPU      0.20s WALL (      27 calls)
     v_h          :      0.72s CPU      0.11s WALL (      27 calls)
     v_xc         :      0.22s CPU      0.09s WALL (      27 calls)
     mix_rho      :      0.95s CPU      0.15s WALL (      25 calls)

     Called by c_bands:
     init_us_2    :      0.19s CPU      0.02s WALL (      51 calls)
     regterg      :      7.31s CPU      1.17s WALL (      25 calls)

     Called by sum_band:
     sum_band:wei :      0.00s CPU      0.00s WALL (      25 calls)
     sum_band:loo :      0.92s CPU      0.17s WALL (      25 calls)
     sum_band:buf :      0.00s CPU      0.00s WALL (      25 calls)
     sum_band:ini :      0.08s CPU      0.01s WALL (      25 calls)

     Called by *egterg:
     rdiaghg      :      0.22s CPU      0.03s WALL (      79 calls)
     regterg:over :      0.00s CPU      0.01s WALL (      60 calls)
     regterg:upda :      0.22s CPU      0.01s WALL (      60 calls)
     regterg:last :      0.00s CPU      0.01s WALL (      60 calls)
     h_psi        :      6.98s CPU      1.15s WALL (      86 calls)
     g_psi        :      0.11s CPU      0.00s WALL (      60 calls)

     Called by h_psi:
     h_psi:calbec :      0.00s CPU      0.01s WALL (      86 calls)
     vloc_psi     :      6.94s CPU      1.11s WALL (      86 calls)
     add_vuspsi   :      0.00s CPU      0.00s WALL (      86 calls)

     General routines
     calbec       :      0.00s CPU      0.01s WALL (     176 calls)
     fft          :      1.14s CPU      0.17s WALL (      72 calls)
     ffts         :      0.50s CPU      0.06s WALL (      25 calls)
     fftw         :      7.12s CPU      1.14s WALL (     398 calls)
     fftc         :      1.75s CPU      0.26s WALL (     112 calls)
     fftcw        :      0.94s CPU      0.18s WALL (      56 calls)
 
     Parallel routines

     EXX routines
     exx_grid     :      0.00s CPU      0.00s WALL (       1 calls)
     exxinit      :      0.55s CPU      0.11s WALL (       7 calls)
     vexx         :      4.00s CPU      0.63s WALL (       7 calls)
     matcalc      :      0.00s CPU      0.01s WALL (      90 calls)
     aceupdate    :      0.00s CPU      0.00s WALL (       7 calls)
     vexxace      :      0.05s CPU      0.02s WALL (      70 calls)
     aceinit      :      4.00s CPU      0.63s WALL (       7 calls)
 
     PWSCF        :     17.00s CPU      3.06s WALL

 
   This run was terminated on:  21:29:30  11Dec2025            

=------------------------------------------------------------------------------=
   JOB DONE.
=------------------------------------------------------------------------------=
