
     Program PWSCF v.7.3.1 starts on 27Jan2025 at 13: 5:58 

     This program is part of the open-source Quantum ESPRESSO suite
     for quantum simulation of materials; please cite
         "P. Giannozzi et al., J. Phys.:Condens. Matter 21 395502 (2009);
         "P. Giannozzi et al., J. Phys.:Condens. Matter 29 465901 (2017);
         "P. Giannozzi et al., J. Chem. Phys. 152 154105 (2020);
          URL http://www.quantum-espresso.org", 
     in publications or presentations arising from this work. More details at
     http://www.quantum-espresso.org/quote

     Parallel version (MPI & OpenMP), running on       1 processor cores
     Number of MPI processes:                 1
     Threads/MPI process:                     1

     MPI processes distributed on     1 nodes
     1443 MiB available memory on the printing compute node when the environment starts
 
     Waiting for input...
     Reading input from standard input

     Current dimensions of program PWSCF are:
     Max number of different atomic species (ntypx) = 10
     Max number of k-points (npk) =  40000
     Max angular momentum in pseudopotentials (lmaxx) =  4

     IMPORTANT: XC functional enforced from input :
     Exchange-correlation= XC-000I-006L-000I-000I-000I-000I
                           (   0   6   0   0   0   0   0)
     Any further DFT definition will be discarded
     Please, verify this is what you really want


     gamma-point specific algorithms are used
 
     Subspace diagonalization in iterative solution of the eigenvalue problem:
     a serial algorithm will be used

 
     G-vector sticks info
     --------------------
     sticks:   dense  smooth     PW     G-vecs:    dense   smooth      PW
     Sum        2449    2449    609                91047    91047   11363
 
     Using Slab Decomposition
 


     bravais-lattice index     =            1
     lattice parameter (alat)  =      16.0000  a.u.
     unit-cell volume          =    4096.0000 (a.u.)^3
     number of atoms/cell      =            2
     number of atomic types    =            1
     number of electrons       =        10.00
     number of Kohn-Sham states=            5
     kinetic-energy cutoff     =      30.0000  Ry
     charge density cutoff     =     120.0000  Ry
     scf convergence threshold =      1.0E-06
     mixing beta               =       0.7000
     number of iterations used =            8  plain     mixing
     Exchange-correlation= XC-000I-006L-000I-000I-000I-000I
                           (   0   6   0   0   0   0   0)

     celldm(1)=  16.000000  celldm(2)=   0.000000  celldm(3)=   0.000000
     celldm(4)=   0.000000  celldm(5)=   0.000000  celldm(6)=   0.000000

     crystal axes: (cart. coord. in units of alat)
               a(1) = (   1.000000   0.000000   0.000000 )  
               a(2) = (   0.000000   1.000000   0.000000 )  
               a(3) = (   0.000000   0.000000   1.000000 )  

     reciprocal axes: (cart. coord. in units 2 pi/alat)
               b(1) = (  1.000000  0.000000  0.000000 )  
               b(2) = (  0.000000  1.000000  0.000000 )  
               b(3) = (  0.000000  0.000000  1.000000 )  


     PseudoPot. # 1 for N  read from file:
     ./N.pbe-hgh.UPF
     MD5 check sum: 1504e9c56d21d37eacabc67df972de26
     Pseudo is Norm-conserving, Zval =  5.0
     Generated in analytical, separable form
     Using radial grid of 1085 points,  1 beta functions with: 
                l(1) =   0

     atomic species   valence    mass     pseudopotential
     N                 5.00    14.00000     N ( 1.00)

      8 Sym. Ops. (no inversion) found



   Cartesian axes

     site n.     atom                  positions (alat units)
         1        N      tau(   1) = (   0.0000000   0.0000000   0.0000000  )
         2        N      tau(   2) = (   0.1476349   0.0000000   0.0000000  )

     number of k points=     1
                       cart. coord. in units 2pi/alat
        k(    1) = (   0.0000000   0.0000000   0.0000000), wk =   2.0000000

     Dense  grid:    45524 G-vectors     FFT dimensions: (  60,  60,  60)

     Estimated max dynamical RAM per process >      36.11 MB

     WARNING: libxc functional with ID    6 depends
      on external parameters: check the user_guide of
      QE if you need to modify them or to check their
      default values.

     Initial potential from superposition of free atoms

     starting charge      10.0000, renormalised to      10.0000

     negative rho (up, down):  1.043E-01 0.000E+00
     Starting wfcs are    8 randomized atomic wfcs

     total cpu time spent up to now is        0.3 secs

     per-process dynamical memory:    16.3 Mb

     Self-consistent Calculation

     iteration #  1     ecut=    30.00 Ry     beta= 0.70
     Davidson diagonalization with overlap
     ethr =  1.00E-02,  avg # of iterations =  3.0

     negative rho (up, down):  1.716E-02 0.000E+00

     total cpu time spent up to now is        0.4 secs

     total energy              =     -32.73374196 Ry
     estimated scf accuracy    <       1.01203591 Ry

     iteration #  2     ecut=    30.00 Ry     beta= 0.70
     Davidson diagonalization with overlap
     ethr =  1.00E-02,  avg # of iterations =  2.0

     negative rho (up, down):  8.854E-03 0.000E+00

     total cpu time spent up to now is        0.5 secs

     total energy              =     -33.09797097 Ry
     estimated scf accuracy    <       0.33055664 Ry

     iteration #  3     ecut=    30.00 Ry     beta= 0.70
     Davidson diagonalization with overlap
     ethr =  3.31E-03,  avg # of iterations =  2.0

     negative rho (up, down):  6.482E-04 0.000E+00

     total cpu time spent up to now is        0.6 secs

     total energy              =     -33.14020255 Ry
     estimated scf accuracy    <       0.00883572 Ry

     iteration #  4     ecut=    30.00 Ry     beta= 0.70
     Davidson diagonalization with overlap
     ethr =  8.84E-05,  avg # of iterations =  3.0

     negative rho (up, down):  4.750E-05 0.000E+00

     total cpu time spent up to now is        0.6 secs

     total energy              =     -33.14391021 Ry
     estimated scf accuracy    <       0.00265828 Ry

     iteration #  5     ecut=    30.00 Ry     beta= 0.70
     Davidson diagonalization with overlap
     ethr =  2.66E-05,  avg # of iterations =  2.0

     negative rho (up, down):  4.936E-06 0.000E+00

     total cpu time spent up to now is        0.7 secs

     total energy              =     -33.14422465 Ry
     estimated scf accuracy    <       0.00010513 Ry

     iteration #  6     ecut=    30.00 Ry     beta= 0.70
     Davidson diagonalization with overlap
     ethr =  1.05E-06,  avg # of iterations =  3.0

     negative rho (up, down):  2.786E-08 0.000E+00

     total cpu time spent up to now is        0.8 secs

     total energy              =     -33.14427391 Ry
     estimated scf accuracy    <       0.00000893 Ry

     iteration #  7     ecut=    30.00 Ry     beta= 0.70
     Davidson diagonalization with overlap
     ethr =  8.93E-08,  avg # of iterations =  2.0

     total cpu time spent up to now is        0.8 secs

     End of self-consistent calculation

          k = 0.0000 0.0000 0.0000 (  5682 PWs)   bands (ev):

   -20.4156  -8.9470  -5.1029  -5.1029  -4.2923

     highest occupied level (ev):    -4.2923

!    total energy              =     -33.14427554 Ry
     estimated scf accuracy    <       0.00000009 Ry

     The total energy is the sum of the following terms:
     one-electron contribution =     -64.52711591 Ry
     hartree contribution      =      31.51989521 Ry
     xc contribution           =      -3.71832411 Ry
     ewald contribution        =       3.58126928 Ry

     convergence has been achieved in   7 iterations
     Message from routine punch:
     Nothing written, as per user request (disk_io='none')
 
     init_run     :      0.11s CPU      0.16s WALL (       1 calls)
     electrons    :      0.47s CPU      0.55s WALL (       1 calls)

     Called by init_run:
     wfcinit      :      0.03s CPU      0.05s WALL (       1 calls)
     potinit      :      0.05s CPU      0.05s WALL (       1 calls)
     hinit0       :      0.03s CPU      0.04s WALL (       1 calls)

     Called by electrons:
     c_bands      :      0.28s CPU      0.28s WALL (       7 calls)
     sum_band     :      0.03s CPU      0.08s WALL (       7 calls)
     v_of_rho     :      0.12s CPU      0.15s WALL (       8 calls)
     mix_rho      :      0.06s CPU      0.05s WALL (       7 calls)

     Called by c_bands:
     init_us_2    :      0.00s CPU      0.00s WALL (      15 calls)
     regterg      :      0.28s CPU      0.28s WALL (       7 calls)

     Called by *egterg:
     rdiaghg      :      0.00s CPU      0.01s WALL (      24 calls)
     h_psi        :      0.28s CPU      0.29s WALL (      25 calls)
     g_psi        :      0.00s CPU      0.00s WALL (      17 calls)

     Called by h_psi:
     h_psi:calbec :      0.00s CPU      0.01s WALL (      25 calls)
     vloc_psi     :      0.28s CPU      0.28s WALL (      25 calls)
     add_vuspsi   :      0.00s CPU      0.00s WALL (      25 calls)

     General routines
     calbec       :      0.00s CPU      0.00s WALL (      25 calls)
     fft          :      0.03s CPU      0.04s WALL (      23 calls)
     ffts         :      0.02s CPU      0.01s WALL (       7 calls)
     fftw         :      0.23s CPU      0.28s WALL (     153 calls)
 
     Parallel routines
 
     PWSCF        :      0.58s CPU      0.84s WALL

 
   This run was terminated on:  13: 5:59  27Jan2025            

=------------------------------------------------------------------------------=
   JOB DONE.
=------------------------------------------------------------------------------=
