
     Program PWSCF v.7.3.1 starts on 29Mar2026 at 13:26: 6 

     This program is part of the open-source Quantum ESPRESSO suite
     for quantum simulation of materials; please cite
         "P. Giannozzi et al., J. Phys.:Condens. Matter 21 395502 (2009);
         "P. Giannozzi et al., J. Phys.:Condens. Matter 29 465901 (2017);
         "P. Giannozzi et al., J. Chem. Phys. 152 154105 (2020);
          URL http://www.quantum-espresso.org", 
     in publications or presentations arising from this work. More details at
     http://www.quantum-espresso.org/quote

     Parallel version (MPI & OpenMP), running on       8 processor cores
     Number of MPI processes:                 1
     Threads/MPI process:                     8

     MPI processes distributed on     1 nodes
     986 MiB available memory on the printing compute node when the environment starts
 
     Waiting for input...
     Reading input from standard input

     Current dimensions of program PWSCF are:
     Max number of different atomic species (ntypx) = 10
     Max number of k-points (npk) =  40000
     Max angular momentum in pseudopotentials (lmaxx) =  4

     IMPORTANT: XC functional enforced from input :
     Exchange-correlation= XC-000I-000I-000I-402L-000I-000I
                           (   0   0   0 402   0   0   0)
     EXX-fraction              =        0.20
     Any further DFT definition will be discarded
     Please, verify this is what you really want

 
     Subspace diagonalization in iterative solution of the eigenvalue problem:
     a serial algorithm will be used

     EXX: q-point mesh:     1    1    1
     EXX: grid of k+q points same as grid of k-points
 
     G-vector sticks info
     --------------------
     sticks:   dense  smooth     PW     G-vecs:    dense   smooth      PW
     Sum        2449    2449    609                91047    91047   11363
 
     Using Slab Decomposition
 


     bravais-lattice index     =            1
     lattice parameter (alat)  =      16.0000  a.u.
     unit-cell volume          =    4096.0000 (a.u.)^3
     number of atoms/cell      =            2
     number of atomic types    =            1
     number of electrons       =        10.00
     number of Kohn-Sham states=            5
     kinetic-energy cutoff     =      30.0000  Ry
     charge density cutoff     =     120.0000  Ry
     cutoff for Fock operator  =     120.0000  Ry
     scf convergence threshold =      1.0E-06
     mixing beta               =       0.7000
     number of iterations used =            8  plain     mixing
     Exchange-correlation= XC-000I-000I-000I-402L-000I-000I
                           (   0   0   0 402   0   0   0)
     EXX-fraction              =        0.20

     celldm(1)=  16.000000  celldm(2)=   0.000000  celldm(3)=   0.000000
     celldm(4)=   0.000000  celldm(5)=   0.000000  celldm(6)=   0.000000

     crystal axes: (cart. coord. in units of alat)
               a(1) = (   1.000000   0.000000   0.000000 )  
               a(2) = (   0.000000   1.000000   0.000000 )  
               a(3) = (   0.000000   0.000000   1.000000 )  

     reciprocal axes: (cart. coord. in units 2 pi/alat)
               b(1) = (  1.000000  0.000000  0.000000 )  
               b(2) = (  0.000000  1.000000  0.000000 )  
               b(3) = (  0.000000  0.000000  1.000000 )  


     PseudoPot. # 1 for N  read from file:
     ./N.pbe-hgh.UPF
     MD5 check sum: 1504e9c56d21d37eacabc67df972de26
     Pseudo is Norm-conserving, Zval =  5.0
     Generated in analytical, separable form
     Using radial grid of 1085 points,  1 beta functions with: 
                l(1) =   0

     atomic species   valence    mass     pseudopotential
     N                 5.00    14.00000     N ( 1.00)

     16 Sym. Ops., with inversion, found



   Cartesian axes

     site n.     atom                  positions (alat units)
         1        N      tau(   1) = (  -0.0738174   0.0000000   0.0000000  )
         2        N      tau(   2) = (   0.0738174   0.0000000   0.0000000  )

     number of k points=     1
                       cart. coord. in units 2pi/alat
        k(    1) = (   0.0000000   0.0000000   0.0000000), wk =   2.0000000

     Dense  grid:    91047 G-vectors     FFT dimensions: (  60,  60,  60)

     Estimated max dynamical RAM per process >      83.23 MB

     WARNING: libxc functional with ID  402 depends
      on external parameters: check the user_guide of
      QE if you need to modify them or to check their
      default values.
     EXX: ACE will be initialized later

     Initial potential from superposition of free atoms

     starting charge      10.0000, renormalised to      10.0000

     negative rho (up, down):  1.036E-01 0.000E+00
     Starting wfcs are    8 randomized atomic wfcs

     total cpu time spent up to now is        0.6 secs

     per-process dynamical memory:    17.3 Mb

     Self-consistent Calculation

     iteration #  1     ecut=    30.00 Ry     beta= 0.70
     Davidson diagonalization with overlap
     c_bands:  2 eigenvalues not converged
     ethr =  1.00E-02,  avg # of iterations = 20.0

     negative rho (up, down):  2.049E-03 0.000E+00

     total cpu time spent up to now is        1.4 secs

     total energy              =     152.86398731 Ry
     estimated scf accuracy    <      42.42387007 Ry

     iteration #  2     ecut=    30.00 Ry     beta= 0.70
     Davidson diagonalization with overlap
     ethr =  1.00E-02,  avg # of iterations = 15.0

     negative rho (up, down):  1.220E-03 0.000E+00

     total cpu time spent up to now is        2.0 secs

     total energy              =     -42.00765459 Ry
     estimated scf accuracy    <      29.53020724 Ry

     iteration #  3     ecut=    30.00 Ry     beta= 0.70
     Davidson diagonalization with overlap
     ethr =  1.00E-02,  avg # of iterations =  2.0

     negative rho (up, down):  7.837E-04 0.000E+00

     total cpu time spent up to now is        2.2 secs

     total energy              =     -38.46050874 Ry
     estimated scf accuracy    <       9.12658501 Ry

     iteration #  4     ecut=    30.00 Ry     beta= 0.70
     Davidson diagonalization with overlap
     ethr =  1.00E-02,  avg # of iterations =  2.0

     negative rho (up, down):  5.715E-04 0.000E+00

     total cpu time spent up to now is        2.5 secs

     total energy              =     -37.63690689 Ry
     estimated scf accuracy    <       3.49424814 Ry

     iteration #  5     ecut=    30.00 Ry     beta= 0.70
     Davidson diagonalization with overlap
     ethr =  1.00E-02,  avg # of iterations =  1.0

     negative rho (up, down):  1.115E-04 0.000E+00

     total cpu time spent up to now is        2.7 secs

     total energy              =     -36.38823301 Ry
     estimated scf accuracy    <       2.01511915 Ry

     iteration #  6     ecut=    30.00 Ry     beta= 0.70
     Davidson diagonalization with overlap
     ethr =  1.00E-02,  avg # of iterations =  2.0

     negative rho (up, down):  1.304E-04 0.000E+00

     total cpu time spent up to now is        3.0 secs

     total energy              =     -36.61195451 Ry
     estimated scf accuracy    <       0.07528330 Ry

     iteration #  7     ecut=    30.00 Ry     beta= 0.70
     Davidson diagonalization with overlap
     ethr =  7.53E-04,  avg # of iterations =  1.0

     negative rho (up, down):  1.096E-06 0.000E+00

     total cpu time spent up to now is        3.2 secs

     total energy              =     -36.58181325 Ry
     estimated scf accuracy    <       0.14984305 Ry

     iteration #  8     ecut=    30.00 Ry     beta= 0.70
     Davidson diagonalization with overlap
     ethr =  7.53E-04,  avg # of iterations =  2.0

     negative rho (up, down):  2.124E-02 0.000E+00

     total cpu time spent up to now is        3.5 secs

     total energy              =     -36.62601817 Ry
     estimated scf accuracy    <       0.01654336 Ry

     iteration #  9     ecut=    30.00 Ry     beta= 0.70
     Davidson diagonalization with overlap
     ethr =  1.65E-04,  avg # of iterations =  1.0

     negative rho (up, down):  1.535E-02 0.000E+00

     total cpu time spent up to now is        3.7 secs

     total energy              =     -36.61472564 Ry
     estimated scf accuracy    <       0.01583901 Ry

     iteration # 10     ecut=    30.00 Ry     beta= 0.70
     Davidson diagonalization with overlap
     ethr =  1.58E-04,  avg # of iterations =  2.0

     total cpu time spent up to now is        4.0 secs

     total energy              =     -36.60967151 Ry
     estimated scf accuracy    <       0.00203177 Ry

     iteration # 11     ecut=    30.00 Ry     beta= 0.70
     Davidson diagonalization with overlap
     ethr =  2.03E-05,  avg # of iterations =  1.0

     total cpu time spent up to now is        4.2 secs

     total energy              =     -36.60963770 Ry
     estimated scf accuracy    <       0.00131505 Ry

     iteration # 12     ecut=    30.00 Ry     beta= 0.70
     Davidson diagonalization with overlap
     ethr =  1.32E-05,  avg # of iterations =  1.0

     negative rho (up, down):  1.843E-08 0.000E+00

     total cpu time spent up to now is        4.4 secs

     total energy              =     -36.60904240 Ry
     estimated scf accuracy    <       0.00092341 Ry

     iteration # 13     ecut=    30.00 Ry     beta= 0.70
     Davidson diagonalization with overlap
     ethr =  9.23E-06,  avg # of iterations =  2.0

     negative rho (up, down):  4.448E-07 0.000E+00

     total cpu time spent up to now is        4.7 secs

     total energy              =     -36.60928033 Ry
     estimated scf accuracy    <       0.00005682 Ry

     iteration # 14     ecut=    30.00 Ry     beta= 0.70
     Davidson diagonalization with overlap
     ethr =  5.68E-07,  avg # of iterations =  2.0

     negative rho (up, down):  2.517E-07 0.000E+00

     total cpu time spent up to now is        5.0 secs

     total energy              =     -36.60942701 Ry
     estimated scf accuracy    <       0.00004273 Ry

     iteration # 15     ecut=    30.00 Ry     beta= 0.70
     Davidson diagonalization with overlap
     ethr =  4.27E-07,  avg # of iterations =  3.0

     negative rho (up, down):  4.263E-07 0.000E+00

     total cpu time spent up to now is        5.3 secs

     total energy              =     -36.60906079 Ry
     estimated scf accuracy    <       0.00068518 Ry

     iteration # 16     ecut=    30.00 Ry     beta= 0.70
     Davidson diagonalization with overlap
     ethr =  4.27E-07,  avg # of iterations =  3.0

     total cpu time spent up to now is        5.6 secs

     total energy              =     -36.60929405 Ry
     estimated scf accuracy    <       0.00010398 Ry

     iteration # 17     ecut=    30.00 Ry     beta= 0.70
     Davidson diagonalization with overlap
     ethr =  4.27E-07,  avg # of iterations =  2.0

     total cpu time spent up to now is        5.9 secs

     total energy              =     -36.60930787 Ry
     estimated scf accuracy    <       0.00000416 Ry

     iteration # 18     ecut=    30.00 Ry     beta= 0.70
     Davidson diagonalization with overlap
     ethr =  4.16E-08,  avg # of iterations =  2.0

     total cpu time spent up to now is        6.1 secs

     End of self-consistent calculation

          k = 0.0000 0.0000 0.0000 ( 11363 PWs)   bands (ev):

   -24.1135 -12.4935  -8.3181  -8.3181  -7.8507

     highest occupied level (ev):    -7.8507

!    total energy              =     -36.60930930 Ry
     estimated scf accuracy    <       0.00000010 Ry

     convergence has been achieved in  18 iterations

     Using ACE for calculation of exact exchange

     EXX grid:    91047 G-vectors     FFT dimensions: (  60,  60,  60)
     ACE projected onto     5 (nbndproj) and applied to     5 (nbnd) bands

     EXX: now go back to refine exchange calculation

     total cpu time spent up to now is        6.7 secs

     per-process dynamical memory:    17.3 Mb

     Self-consistent Calculation

     iteration #  1     ecut=    30.00 Ry     beta= 0.70
     Davidson diagonalization with overlap
     ethr =  4.16E-08,  avg # of iterations =  7.0

     total cpu time spent up to now is        7.1 secs

     total energy              =     -37.90443080 Ry
     estimated scf accuracy    <       0.02558891 Ry

     iteration #  2     ecut=    30.00 Ry     beta= 0.70
     Davidson diagonalization with overlap
     ethr =  2.56E-04,  avg # of iterations =  2.0

     total cpu time spent up to now is        7.4 secs

     total energy              =     -37.91160050 Ry
     estimated scf accuracy    <       0.00169857 Ry

     iteration #  3     ecut=    30.00 Ry     beta= 0.70
     Davidson diagonalization with overlap
     ethr =  1.70E-05,  avg # of iterations =  2.0

     total cpu time spent up to now is        7.7 secs

     total energy              =     -37.91189485 Ry
     estimated scf accuracy    <       0.00000668 Ry

     iteration #  4     ecut=    30.00 Ry     beta= 0.70
     Davidson diagonalization with overlap
     ethr =  6.68E-08,  avg # of iterations =  2.0

     total cpu time spent up to now is        7.9 secs

     End of self-consistent calculation

          k = 0.0000 0.0000 0.0000 ( 11363 PWs)   bands (ev):

   -27.5775 -15.1051 -10.1738 -10.1738 -10.1674

     highest occupied level (ev):   -10.1674

!    total energy              =     -37.91189573 Ry
     estimated scf accuracy    <       0.00000036 Ry

     convergence has been achieved in   4 iterations

     Using ACE for calculation of exact exchange
     ACE projected onto     5 (nbndproj) and applied to     5 (nbnd) bands

     total energy              =     -37.91297724 Ry
     Harris-Foulkes estimate   =     -37.91297792 Ry
     est. exchange err (dexx)  =       0.00108151 Ry
     - averaged Fock potential =       2.60395830 Ry
     + Fock energy (ACE)       =      -1.31891217 Ry

     EXX: now go back to refine exchange calculation

     total cpu time spent up to now is        8.3 secs

     per-process dynamical memory:    17.3 Mb

     Self-consistent Calculation

     iteration #  1     ecut=    30.00 Ry     beta= 0.70
     Davidson diagonalization with overlap
     ethr =  6.68E-08,  avg # of iterations =  5.0

     total cpu time spent up to now is        8.7 secs

     total energy              =     -37.91302391 Ry
     estimated scf accuracy    <       0.00010369 Ry

     iteration #  2     ecut=    30.00 Ry     beta= 0.70
     Davidson diagonalization with overlap
     ethr =  1.04E-06,  avg # of iterations =  2.0

     total cpu time spent up to now is        8.9 secs

     total energy              =     -37.91305158 Ry
     estimated scf accuracy    <       0.00000635 Ry

     iteration #  3     ecut=    30.00 Ry     beta= 0.70
     Davidson diagonalization with overlap
     ethr =  6.35E-08,  avg # of iterations =  2.0

     total cpu time spent up to now is        9.2 secs

     End of self-consistent calculation

          k = 0.0000 0.0000 0.0000 ( 11363 PWs)   bands (ev):

   -27.5375 -15.0918 -10.1566 -10.1393 -10.1393

     highest occupied level (ev):   -10.1393

!    total energy              =     -37.91305282 Ry
     estimated scf accuracy    <       0.00000003 Ry

     convergence has been achieved in   3 iterations

     Using ACE for calculation of exact exchange
     ACE projected onto     5 (nbndproj) and applied to     5 (nbnd) bands

     total energy              =     -37.91305899 Ry
     Harris-Foulkes estimate   =     -37.91305890 Ry
     est. exchange err (dexx)  =       0.00000617 Ry
     - averaged Fock potential =       2.63989135 Ry
     + Fock energy (ACE)       =      -1.32098535 Ry

     EXX: now go back to refine exchange calculation

     total cpu time spent up to now is        9.6 secs

     per-process dynamical memory:    17.3 Mb

     Self-consistent Calculation

     iteration #  1     ecut=    30.00 Ry     beta= 0.70
     Davidson diagonalization with overlap
     ethr =  6.35E-08,  avg # of iterations =  2.0

     Threshold (ethr) on eigenvalues was too large:
     Diagonalizing with lowered threshold

     Davidson diagonalization with overlap
     ethr =  6.04E-09,  avg # of iterations =  1.0

     total cpu time spent up to now is        9.9 secs

     End of self-consistent calculation

          k = 0.0000 0.0000 0.0000 ( 11363 PWs)   bands (ev):

   -27.5392 -15.0970 -10.1623 -10.1409 -10.1409

     highest occupied level (ev):   -10.1409

!    total energy              =     -37.91305934 Ry
     estimated scf accuracy    <       0.00000065 Ry

     convergence has been achieved in   1 iterations

     Using ACE for calculation of exact exchange
     ACE projected onto     5 (nbndproj) and applied to     5 (nbnd) bands

!!   total energy              =     -37.91305945 Ry
     Harris-Foulkes estimate   =     -37.91306000 Ry
     est. exchange err (dexx)  =       0.00000011 Ry
     - averaged Fock potential =       2.64224012 Ry
     + Fock energy (ACE)       =      -1.32125488 Ry

     EXX self-consistency reached
     Message from routine punch:
     Nothing written, as per user request (disk_io='none')
 
     init_run     :      1.22s CPU      0.42s WALL (       1 calls)
     electrons    :     43.27s CPU      7.93s WALL (       4 calls)

     Called by init_run:
     aceinit0     :      0.00s CPU      0.00s WALL (       1 calls)
     wfcinit      :      0.64s CPU      0.10s WALL (       1 calls)
     potinit      :      0.38s CPU      0.18s WALL (       1 calls)
     hinit0       :      0.14s CPU      0.05s WALL (       1 calls)

     Called by electrons:
     c_bands      :     24.81s CPU      3.57s WALL (      27 calls)
     sum_band     :      6.50s CPU      0.91s WALL (      27 calls)
     v_of_rho     :      9.52s CPU      3.19s WALL (      28 calls)
     mix_rho      :      2.98s CPU      0.47s WALL (      27 calls)

     Called by c_bands:
     init_us_2    :      0.56s CPU      0.03s WALL (      55 calls)
     cegterg      :     24.58s CPU      3.55s WALL (      27 calls)

     Called by *egterg:
     cdiaghg      :      0.11s CPU      0.03s WALL (     112 calls)
     h_psi        :     23.66s CPU      3.39s WALL (     117 calls)
     g_psi        :      0.00s CPU      0.01s WALL (      89 calls)

     Called by h_psi:
     h_psi:calbec :      0.00s CPU      0.02s WALL (     117 calls)
     vloc_psi     :     23.08s CPU      3.29s WALL (     117 calls)
     add_vuspsi   :      0.12s CPU      0.03s WALL (     117 calls)

     General routines
     calbec       :      0.25s CPU      0.04s WALL (     169 calls)
     fft          :      2.92s CPU      0.57s WALL (     275 calls)
     ffts         :      0.23s CPU      0.07s WALL (      27 calls)
     fftw         :     24.44s CPU      3.30s WALL (    1111 calls)
     fftc         :      3.50s CPU      0.55s WALL (     200 calls)
     fftcw        :      1.56s CPU      0.20s WALL (      60 calls)
 
     Parallel routines

     EXX routines
     exx_grid     :      0.00s CPU      0.00s WALL (       1 calls)
     exxinit      :      1.91s CPU      0.45s WALL (       4 calls)
     vexx         :      6.06s CPU      1.17s WALL (       4 calls)
     matcalc      :      0.25s CPU      0.02s WALL (      52 calls)
     aceupdate    :      0.00s CPU      0.00s WALL (       4 calls)
     vexxace      :      0.36s CPU      0.03s WALL (      41 calls)
     aceinit      :      6.06s CPU      1.18s WALL (       4 calls)
 
     PWSCF        :     53.09s CPU     10.35s WALL

 
   This run was terminated on:  13:26:17  29Mar2026            

=------------------------------------------------------------------------------=
   JOB DONE.
=------------------------------------------------------------------------------=
