
     Program PWSCF v.7.3.1 starts on  9Dec2025 at 22:45: 2 

     This program is part of the open-source Quantum ESPRESSO suite
     for quantum simulation of materials; please cite
         "P. Giannozzi et al., J. Phys.:Condens. Matter 21 395502 (2009);
         "P. Giannozzi et al., J. Phys.:Condens. Matter 29 465901 (2017);
         "P. Giannozzi et al., J. Chem. Phys. 152 154105 (2020);
          URL http://www.quantum-espresso.org", 
     in publications or presentations arising from this work. More details at
     http://www.quantum-espresso.org/quote

     Parallel version (MPI & OpenMP), running on       8 processor cores
     Number of MPI processes:                 1
     Threads/MPI process:                     8

     MPI processes distributed on     1 nodes
     784 MiB available memory on the printing compute node when the environment starts
 
     Waiting for input...
     Reading input from standard input

     Current dimensions of program PWSCF are:
     Max number of different atomic species (ntypx) = 10
     Max number of k-points (npk) =  40000
     Max angular momentum in pseudopotentials (lmaxx) =  4

     IMPORTANT: XC functional enforced from input :
     Exchange-correlation= HF
                           (   5   0   0   0   0   0   0)
     EXX-fraction              =        1.00
     Any further DFT definition will be discarded
     Please, verify this is what you really want


     gamma-point specific algorithms are used
 
     Subspace diagonalization in iterative solution of the eigenvalue problem:
     a serial algorithm will be used

     EXX: q-point mesh:     1    1    1
     EXX: grid of k+q points same as grid of k-points
 
     G-vector sticks info
     --------------------
     sticks:   dense  smooth     PW     G-vecs:    dense   smooth      PW
     Sum        2449    2449    609                91047    91047   11363
 
     Using Slab Decomposition
 


     bravais-lattice index     =            1
     lattice parameter (alat)  =      16.0000  a.u.
     unit-cell volume          =    4096.0000 (a.u.)^3
     number of atoms/cell      =            2
     number of atomic types    =            1
     number of electrons       =        10.00
     number of Kohn-Sham states=            5
     kinetic-energy cutoff     =      30.0000  Ry
     charge density cutoff     =     120.0000  Ry
     cutoff for Fock operator  =     120.0000  Ry
     scf convergence threshold =      1.0E-06
     mixing beta               =       0.7000
     number of iterations used =            8  plain     mixing
     Exchange-correlation= HF
                           (   5   0   0   0   0   0   0)
     EXX-fraction              =        1.00

     celldm(1)=  16.000000  celldm(2)=   0.000000  celldm(3)=   0.000000
     celldm(4)=   0.000000  celldm(5)=   0.000000  celldm(6)=   0.000000

     crystal axes: (cart. coord. in units of alat)
               a(1) = (   1.000000   0.000000   0.000000 )  
               a(2) = (   0.000000   1.000000   0.000000 )  
               a(3) = (   0.000000   0.000000   1.000000 )  

     reciprocal axes: (cart. coord. in units 2 pi/alat)
               b(1) = (  1.000000  0.000000  0.000000 )  
               b(2) = (  0.000000  1.000000  0.000000 )  
               b(3) = (  0.000000  0.000000  1.000000 )  


     PseudoPot. # 1 for N  read from file:
     ./N.pbe-hgh.UPF
     MD5 check sum: 1504e9c56d21d37eacabc67df972de26
     Pseudo is Norm-conserving, Zval =  5.0
     Generated in analytical, separable form
     Using radial grid of 1085 points,  1 beta functions with: 
                l(1) =   0

     atomic species   valence    mass     pseudopotential
     N                 5.00    14.00000     N ( 1.00)

      8 Sym. Ops. (no inversion) found


                                    s                        frac. trans.

      isym =  1     identity                                     

 cryst.   s( 1) = (     1          0          0      )
                  (     0          1          0      )
                  (     0          0          1      )

 cart.    s( 1) = (  1.0000000  0.0000000  0.0000000 )
                  (  0.0000000  1.0000000  0.0000000 )
                  (  0.0000000  0.0000000  1.0000000 )


      isym =  2     180 deg rotation - cart. axis [1,0,0]        

 cryst.   s( 2) = (     1          0          0      )
                  (     0         -1          0      )
                  (     0          0         -1      )

 cart.    s( 2) = (  1.0000000  0.0000000  0.0000000 )
                  (  0.0000000 -1.0000000  0.0000000 )
                  (  0.0000000  0.0000000 -1.0000000 )


      isym =  3      90 deg rotation - cart. axis [-1,0,0]       

 cryst.   s( 3) = (     1          0          0      )
                  (     0          0         -1      )
                  (     0          1          0      )

 cart.    s( 3) = (  1.0000000  0.0000000  0.0000000 )
                  (  0.0000000  0.0000000  1.0000000 )
                  (  0.0000000 -1.0000000  0.0000000 )


      isym =  4      90 deg rotation - cart. axis [1,0,0]        

 cryst.   s( 4) = (     1          0          0      )
                  (     0          0          1      )
                  (     0         -1          0      )

 cart.    s( 4) = (  1.0000000  0.0000000  0.0000000 )
                  (  0.0000000  0.0000000 -1.0000000 )
                  (  0.0000000  1.0000000  0.0000000 )


      isym =  5     inv. 180 deg rotation - cart. axis [0,0,1]   

 cryst.   s( 5) = (     1          0          0      )
                  (     0          1          0      )
                  (     0          0         -1      )

 cart.    s( 5) = (  1.0000000  0.0000000  0.0000000 )
                  (  0.0000000  1.0000000  0.0000000 )
                  (  0.0000000  0.0000000 -1.0000000 )


      isym =  6     inv. 180 deg rotation - cart. axis [0,1,0]   

 cryst.   s( 6) = (     1          0          0      )
                  (     0         -1          0      )
                  (     0          0          1      )

 cart.    s( 6) = (  1.0000000  0.0000000  0.0000000 )
                  (  0.0000000 -1.0000000  0.0000000 )
                  (  0.0000000  0.0000000  1.0000000 )


      isym =  7     inv. 180 deg rotation - cart. axis [0,1,1]   

 cryst.   s( 7) = (     1          0          0      )
                  (     0          0         -1      )
                  (     0         -1          0      )

 cart.    s( 7) = (  1.0000000  0.0000000  0.0000000 )
                  (  0.0000000  0.0000000 -1.0000000 )
                  (  0.0000000 -1.0000000  0.0000000 )


      isym =  8     inv. 180 deg rotation - cart. axis [0,1,-1]  

 cryst.   s( 8) = (     1          0          0      )
                  (     0          0          1      )
                  (     0          1          0      )

 cart.    s( 8) = (  1.0000000  0.0000000  0.0000000 )
                  (  0.0000000  0.0000000  1.0000000 )
                  (  0.0000000  1.0000000  0.0000000 )


     point group C_4v (4mm) 
     there are  5 classes
     the character table:

       E     2C4   C2    2s_v  2s_d 
A_1    1.00  1.00  1.00  1.00  1.00
A_2    1.00  1.00  1.00 -1.00 -1.00
B_1    1.00 -1.00  1.00  1.00 -1.00
B_2    1.00 -1.00  1.00 -1.00  1.00
E      2.00  0.00 -2.00  0.00  0.00

     the symmetry operations in each class and the name of the first element:

     E        1
          identity                                               
     2C4      3    4
           90 deg rotation - cart. axis [-1,0,0]                 
     C2       2
          180 deg rotation - cart. axis [1,0,0]                  
     2s_v     5    6
          inv. 180 deg rotation - cart. axis [0,0,1]             
     2s_d     7    8
          inv. 180 deg rotation - cart. axis [0,1,1]             

   Cartesian axes

     site n.     atom                  positions (alat units)
         1        N      tau(   1) = (   0.0000000   0.0000000   0.0000000  )
         2        N      tau(   2) = (   0.1476349   0.0000000   0.0000000  )

   Crystallographic axes

     site n.     atom                  positions (cryst. coord.)
         1        N      tau(   1) = (  0.0000000  0.0000000  0.0000000  )
         2        N      tau(   2) = (  0.1476349  0.0000000  0.0000000  )

     number of k points=     1
                       cart. coord. in units 2pi/alat
        k(    1) = (   0.0000000   0.0000000   0.0000000), wk =   2.0000000

                       cryst. coord.
        k(    1) = (   0.0000000   0.0000000   0.0000000), wk =   2.0000000

     Dense  grid:    45524 G-vectors     FFT dimensions: (  60,  60,  60)

     Dynamical RAM for                 wfc:       0.43 MB

     Dynamical RAM for     wfc (w. buffer):       0.43 MB

     Dynamical RAM for                 EXX:      18.47 MB

     Dynamical RAM for           str. fact:       0.69 MB

     Dynamical RAM for           local pot:       0.00 MB

     Dynamical RAM for          nlocal pot:       0.17 MB

     Dynamical RAM for                qrad:       0.01 MB

     Dynamical RAM for          rho,v,vnew:       7.03 MB

     Dynamical RAM for               rhoin:       2.34 MB

     Dynamical RAM for            rho*nmix:      11.11 MB

     Dynamical RAM for           G-vectors:       2.95 MB

     Dynamical RAM for          h,s,v(r/c):       0.00 MB

     Dynamical RAM for          <psi|beta>:       0.00 MB

     Dynamical RAM for                 psi:       0.87 MB

     Dynamical RAM for                hpsi:       0.87 MB

     Dynamical RAM for      wfcinit/wfcrot:       1.39 MB

     Estimated static dynamical RAM per process >      41.73 MB

     Estimated max dynamical RAM per process >      54.58 MB
     EXX: ACE will be initialized later

     Initial potential from superposition of free atoms

     starting charge      10.0000, renormalised to      10.0000

     negative rho (up, down):  1.043E-01 0.000E+00
     Starting wfcs are    8 randomized atomic wfcs

     total cpu time spent up to now is        0.3 secs

     per-process dynamical memory:    17.5 Mb

     Self-consistent Calculation

     iteration #  1     ecut=    30.00 Ry     beta= 0.70
     Davidson diagonalization with overlap

---- Real-time Memory Report at c_bands before calling an iterative solver
            78 MiB given to the printing process from OS
            17 MiB allocation reported by mallinfo(arena+hblkhd)
           728 MiB available memory on the node where the printing process lives
------------------
     ethr =  1.00E-02,  avg # of iterations =  2.0

     negative rho (up, down):  2.582E-02 0.000E+00

     total cpu time spent up to now is        0.4 secs

     total energy              =     -36.93140239 Ry
     estimated scf accuracy    <       0.18542865 Ry

     iteration #  2     ecut=    30.00 Ry     beta= 0.70
     Davidson diagonalization with overlap

---- Real-time Memory Report at c_bands before calling an iterative solver
            98 MiB given to the printing process from OS
            17 MiB allocation reported by mallinfo(arena+hblkhd)
           708 MiB available memory on the node where the printing process lives
------------------
     ethr =  1.85E-03,  avg # of iterations =  2.0

     negative rho (up, down):  8.700E-03 0.000E+00

     total cpu time spent up to now is        0.5 secs

     total energy              =     -36.96200501 Ry
     estimated scf accuracy    <       0.01763819 Ry

     iteration #  3     ecut=    30.00 Ry     beta= 0.70
     Davidson diagonalization with overlap

---- Real-time Memory Report at c_bands before calling an iterative solver
           100 MiB given to the printing process from OS
            17 MiB allocation reported by mallinfo(arena+hblkhd)
           708 MiB available memory on the node where the printing process lives
------------------
     ethr =  1.76E-04,  avg # of iterations =  2.0

     negative rho (up, down):  3.478E-04 0.000E+00

     total cpu time spent up to now is        0.6 secs

     total energy              =     -36.96463066 Ry
     estimated scf accuracy    <       0.00070764 Ry

     iteration #  4     ecut=    30.00 Ry     beta= 0.70
     Davidson diagonalization with overlap

---- Real-time Memory Report at c_bands before calling an iterative solver
           102 MiB given to the printing process from OS
            17 MiB allocation reported by mallinfo(arena+hblkhd)
           704 MiB available memory on the node where the printing process lives
------------------
     ethr =  7.08E-06,  avg # of iterations =  2.0

     negative rho (up, down):  2.019E-06 0.000E+00

     total cpu time spent up to now is        0.7 secs

     total energy              =     -36.96466138 Ry
     estimated scf accuracy    <       0.00001712 Ry

     iteration #  5     ecut=    30.00 Ry     beta= 0.70
     Davidson diagonalization with overlap

---- Real-time Memory Report at c_bands before calling an iterative solver
           104 MiB given to the printing process from OS
            17 MiB allocation reported by mallinfo(arena+hblkhd)
           704 MiB available memory on the node where the printing process lives
------------------
     ethr =  1.71E-07,  avg # of iterations =  3.0

     negative rho (up, down):  7.627E-07 0.000E+00

     total cpu time spent up to now is        0.8 secs

     total energy              =     -36.96467067 Ry
     estimated scf accuracy    <       0.00000365 Ry

     iteration #  6     ecut=    30.00 Ry     beta= 0.70
     Davidson diagonalization with overlap

---- Real-time Memory Report at c_bands before calling an iterative solver
           105 MiB given to the printing process from OS
            17 MiB allocation reported by mallinfo(arena+hblkhd)
           693 MiB available memory on the node where the printing process lives
------------------
     ethr =  3.65E-08,  avg # of iterations =  2.0

     total cpu time spent up to now is        0.8 secs

     End of self-consistent calculation

          k = 0.0000 0.0000 0.0000 (  5682 PWs)   bands (ev):

   -24.7411 -12.9430  -8.7734  -8.7734  -8.2446

     occupation numbers 
     1.0000   1.0000   1.0000   1.0000   1.0000

     highest occupied level (ev):    -8.2446

!    total energy              =     -36.96467103 Ry
     estimated scf accuracy    <       0.00000023 Ry

     convergence has been achieved in   6 iterations

     Using ACE for calculation of exact exchange

     EXX grid:    45524 G-vectors     FFT dimensions: (  60,  60,  60)
     ACE projected onto     5 (nbndproj) and applied to     5 (nbnd) bands

     EXX: now go back to refine exchange calculation

     total cpu time spent up to now is        1.0 secs

     per-process dynamical memory:    26.8 Mb

     Self-consistent Calculation

     iteration #  1     ecut=    30.00 Ry     beta= 0.70
     Davidson diagonalization with overlap

---- Real-time Memory Report at c_bands before calling an iterative solver
           137 MiB given to the printing process from OS
            26 MiB allocation reported by mallinfo(arena+hblkhd)
           668 MiB available memory on the node where the printing process lives
------------------
     ethr =  3.65E-08,  avg # of iterations =  7.0

     total cpu time spent up to now is        1.2 secs

     total energy              =     -35.65471308 Ry
     estimated scf accuracy    <       0.00170045 Ry

     iteration #  2     ecut=    30.00 Ry     beta= 0.70
     Davidson diagonalization with overlap

---- Real-time Memory Report at c_bands before calling an iterative solver
           137 MiB given to the printing process from OS
            26 MiB allocation reported by mallinfo(arena+hblkhd)
           668 MiB available memory on the node where the printing process lives
------------------
     ethr =  1.70E-05,  avg # of iterations =  2.0

     total cpu time spent up to now is        1.2 secs

     total energy              =     -35.65480768 Ry
     estimated scf accuracy    <       0.00006371 Ry

     iteration #  3     ecut=    30.00 Ry     beta= 0.70
     Davidson diagonalization with overlap

---- Real-time Memory Report at c_bands before calling an iterative solver
           137 MiB given to the printing process from OS
            26 MiB allocation reported by mallinfo(arena+hblkhd)
           668 MiB available memory on the node where the printing process lives
------------------
     ethr =  6.37E-07,  avg # of iterations =  2.0

     total cpu time spent up to now is        1.3 secs

     End of self-consistent calculation

          k = 0.0000 0.0000 0.0000 (  5682 PWs)   bands (ev):

   -32.4260 -17.1284 -10.8738  -9.8666  -9.8666

     occupation numbers 
     1.0000   1.0000   1.0000   1.0000   1.0000

     highest occupied level (ev):    -9.8666

!    total energy              =     -35.65481784 Ry
     estimated scf accuracy    <       0.00000065 Ry

     convergence has been achieved in   3 iterations

     Using ACE for calculation of exact exchange
     ACE projected onto     5 (nbndproj) and applied to     5 (nbnd) bands

     total energy              =     -35.65884984 Ry
     Harris-Foulkes estimate   =     -35.65885049 Ry
     est. exchange err (dexx)  =       0.00403200 Ry
     - averaged Fock potential =      13.07672360 Ry
     + Fock energy (ACE)       =      -6.56554727 Ry

     EXX: now go back to refine exchange calculation

     total cpu time spent up to now is        1.5 secs

     per-process dynamical memory:    27.4 Mb

     Self-consistent Calculation

     iteration #  1     ecut=    30.00 Ry     beta= 0.70
     Davidson diagonalization with overlap

---- Real-time Memory Report at c_bands before calling an iterative solver
           139 MiB given to the printing process from OS
            26 MiB allocation reported by mallinfo(arena+hblkhd)
           664 MiB available memory on the node where the printing process lives
------------------
     ethr =  6.37E-07,  avg # of iterations =  4.0

     total cpu time spent up to now is        1.6 secs

     total energy              =     -35.66008173 Ry
     estimated scf accuracy    <       0.00017198 Ry

     iteration #  2     ecut=    30.00 Ry     beta= 0.70
     Davidson diagonalization with overlap

---- Real-time Memory Report at c_bands before calling an iterative solver
           139 MiB given to the printing process from OS
            26 MiB allocation reported by mallinfo(arena+hblkhd)
           667 MiB available memory on the node where the printing process lives
------------------
     ethr =  1.72E-06,  avg # of iterations =  2.0

     total cpu time spent up to now is        1.7 secs

     total energy              =     -35.66009168 Ry
     estimated scf accuracy    <       0.00000593 Ry

     iteration #  3     ecut=    30.00 Ry     beta= 0.70
     Davidson diagonalization with overlap

---- Real-time Memory Report at c_bands before calling an iterative solver
           139 MiB given to the printing process from OS
            26 MiB allocation reported by mallinfo(arena+hblkhd)
           667 MiB available memory on the node where the printing process lives
------------------
     ethr =  5.93E-08,  avg # of iterations =  2.0

     total cpu time spent up to now is        1.8 secs

     End of self-consistent calculation

          k = 0.0000 0.0000 0.0000 (  5682 PWs)   bands (ev):

   -32.4581 -17.1816 -11.0302  -9.8139  -9.8139

     occupation numbers 
     1.0000   1.0000   1.0000   1.0000   1.0000

     highest occupied level (ev):    -9.8139

!    total energy              =     -35.66009266 Ry
     estimated scf accuracy    <       0.00000002 Ry

     convergence has been achieved in   3 iterations

     Using ACE for calculation of exact exchange
     ACE projected onto     5 (nbndproj) and applied to     5 (nbnd) bands

     total energy              =     -35.66053200 Ry
     Harris-Foulkes estimate   =     -35.66053203 Ry
     est. exchange err (dexx)  =       0.00043935 Ry
     - averaged Fock potential =      13.14373118 Ry
     + Fock energy (ACE)       =      -6.57862326 Ry

     EXX: now go back to refine exchange calculation

     total cpu time spent up to now is        1.9 secs

     per-process dynamical memory:    27.4 Mb

     Self-consistent Calculation

     iteration #  1     ecut=    30.00 Ry     beta= 0.70
     Davidson diagonalization with overlap

---- Real-time Memory Report at c_bands before calling an iterative solver
           139 MiB given to the printing process from OS
            26 MiB allocation reported by mallinfo(arena+hblkhd)
           661 MiB available memory on the node where the printing process lives
------------------
     ethr =  5.93E-08,  avg # of iterations =  5.0

     total cpu time spent up to now is        2.0 secs

     total energy              =     -35.66069334 Ry
     estimated scf accuracy    <       0.00002895 Ry

     iteration #  2     ecut=    30.00 Ry     beta= 0.70
     Davidson diagonalization with overlap

---- Real-time Memory Report at c_bands before calling an iterative solver
           139 MiB given to the printing process from OS
            26 MiB allocation reported by mallinfo(arena+hblkhd)
           686 MiB available memory on the node where the printing process lives
------------------
     ethr =  2.89E-07,  avg # of iterations =  2.0

     total cpu time spent up to now is        2.1 secs

     End of self-consistent calculation

          k = 0.0000 0.0000 0.0000 (  5682 PWs)   bands (ev):

   -32.4572 -17.1925 -11.0899  -9.7978  -9.7978

     occupation numbers 
     1.0000   1.0000   1.0000   1.0000   1.0000

     highest occupied level (ev):    -9.7978

!    total energy              =     -35.66069630 Ry
     estimated scf accuracy    <       0.00000070 Ry

     convergence has been achieved in   2 iterations

     Using ACE for calculation of exact exchange
     ACE projected onto     5 (nbndproj) and applied to     5 (nbnd) bands

     total energy              =     -35.66076382 Ry
     Harris-Foulkes estimate   =     -35.66076453 Ry
     est. exchange err (dexx)  =       0.00006753 Ry
     - averaged Fock potential =      13.16153334 Ry
     + Fock energy (ACE)       =      -6.58297761 Ry

     EXX: now go back to refine exchange calculation

     total cpu time spent up to now is        2.3 secs

     per-process dynamical memory:    27.4 Mb

     Self-consistent Calculation

     iteration #  1     ecut=    30.00 Ry     beta= 0.70
     Davidson diagonalization with overlap

---- Real-time Memory Report at c_bands before calling an iterative solver
           139 MiB given to the printing process from OS
            26 MiB allocation reported by mallinfo(arena+hblkhd)
           701 MiB available memory on the node where the printing process lives
------------------
     ethr =  2.89E-07,  avg # of iterations =  3.0

     total cpu time spent up to now is        2.4 secs

     total energy              =     -35.66078717 Ry
     estimated scf accuracy    <       0.00000466 Ry

     iteration #  2     ecut=    30.00 Ry     beta= 0.70
     Davidson diagonalization with overlap

---- Real-time Memory Report at c_bands before calling an iterative solver
           139 MiB given to the printing process from OS
            26 MiB allocation reported by mallinfo(arena+hblkhd)
           702 MiB available memory on the node where the printing process lives
------------------
     ethr =  4.66E-08,  avg # of iterations =  2.0

     total cpu time spent up to now is        2.5 secs

     End of self-consistent calculation

          k = 0.0000 0.0000 0.0000 (  5682 PWs)   bands (ev):

   -32.4531 -17.1957 -11.1128  -9.7925  -9.7925

     occupation numbers 
     1.0000   1.0000   1.0000   1.0000   1.0000

     highest occupied level (ev):    -9.7925

!    total energy              =     -35.66078769 Ry
     estimated scf accuracy    <       0.00000010 Ry

     convergence has been achieved in   2 iterations

     Using ACE for calculation of exact exchange
     ACE projected onto     5 (nbndproj) and applied to     5 (nbnd) bands

     total energy              =     -35.66079780 Ry
     Harris-Foulkes estimate   =     -35.66079790 Ry
     est. exchange err (dexx)  =       0.00001011 Ry
     - averaged Fock potential =      13.16754394 Ry
     + Fock energy (ACE)       =      -6.58457644 Ry

     EXX: now go back to refine exchange calculation

     total cpu time spent up to now is        2.7 secs

     per-process dynamical memory:    27.4 Mb

     Self-consistent Calculation

     iteration #  1     ecut=    30.00 Ry     beta= 0.70
     Davidson diagonalization with overlap

---- Real-time Memory Report at c_bands before calling an iterative solver
           139 MiB given to the printing process from OS
            26 MiB allocation reported by mallinfo(arena+hblkhd)
           656 MiB available memory on the node where the printing process lives
------------------
     ethr =  4.66E-08,  avg # of iterations =  3.0

     total cpu time spent up to now is        2.8 secs

     End of self-consistent calculation

          k = 0.0000 0.0000 0.0000 (  5682 PWs)   bands (ev):

   -32.4495 -17.2002 -11.1253  -9.7907  -9.7907

     occupation numbers 
     1.0000   1.0000   1.0000   1.0000   1.0000

     highest occupied level (ev):    -9.7907

!    total energy              =     -35.66080129 Ry
     estimated scf accuracy    <       0.00000079 Ry

     convergence has been achieved in   1 iterations

     Using ACE for calculation of exact exchange
     ACE projected onto     5 (nbndproj) and applied to     5 (nbnd) bands

     total energy              =     -35.66080328 Ry
     Harris-Foulkes estimate   =     -35.66080407 Ry
     est. exchange err (dexx)  =       0.00000199 Ry
     - averaged Fock potential =      13.16989992 Ry
     + Fock energy (ACE)       =      -6.58532548 Ry

     EXX: now go back to refine exchange calculation

     total cpu time spent up to now is        2.9 secs

     per-process dynamical memory:    27.4 Mb

     Self-consistent Calculation

     iteration #  1     ecut=    30.00 Ry     beta= 0.70
     Davidson diagonalization with overlap

---- Real-time Memory Report at c_bands before calling an iterative solver
           139 MiB given to the printing process from OS
            26 MiB allocation reported by mallinfo(arena+hblkhd)
           656 MiB available memory on the node where the printing process lives
------------------
     ethr =  4.66E-08,  avg # of iterations =  2.0

     Threshold (ethr) on eigenvalues was too large:
     Diagonalizing with lowered threshold

     Davidson diagonalization with overlap

---- Real-time Memory Report at c_bands before calling an iterative solver
           139 MiB given to the printing process from OS
            26 MiB allocation reported by mallinfo(arena+hblkhd)
           656 MiB available memory on the node where the printing process lives
------------------
     ethr =  4.02E-10,  avg # of iterations =  2.0

     total cpu time spent up to now is        3.0 secs

     End of self-consistent calculation

          k = 0.0000 0.0000 0.0000 (  5682 PWs)   bands (ev):

   -32.4496 -17.1978 -11.1261  -9.7901  -9.7901

     occupation numbers 
     1.0000   1.0000   1.0000   1.0000   1.0000

     highest occupied level (ev):    -9.7901

!    total energy              =     -35.66080371 Ry
     estimated scf accuracy    <       0.00000004 Ry

     convergence has been achieved in   1 iterations

     Using ACE for calculation of exact exchange
     ACE projected onto     5 (nbndproj) and applied to     5 (nbnd) bands

!!   total energy              =     -35.66080391 Ry
     Harris-Foulkes estimate   =     -35.66080395 Ry
     est. exchange err (dexx)  =       0.00000020 Ry
     - averaged Fock potential =      13.17082783 Ry
     + Fock energy (ACE)       =      -6.58550255 Ry

     EXX self-consistency reached

     Writing all to output data dir ./N2_hf.save/ :
     XML data file, charge density, pseudopotentials, collected wavefunctions
 
     init_run     :      0.47s CPU      0.17s WALL (       1 calls)
     electrons    :     11.28s CPU      1.67s WALL (       7 calls)

     Called by init_run:
     aceinit0     :      0.00s CPU      0.00s WALL (       1 calls)
     wfcinit      :      0.11s CPU      0.05s WALL (       1 calls)
     wfcinit:atom :      0.00s CPU      0.00s WALL (       1 calls)
     wfcinit:wfcr :      0.11s CPU      0.05s WALL (       1 calls)
     potinit      :      0.23s CPU      0.04s WALL (       1 calls)
     hinit0       :      0.12s CPU      0.05s WALL (       1 calls)

     Called by electrons:
     c_bands      :      7.42s CPU      1.11s WALL (      19 calls)
     sum_band     :      2.11s CPU      0.28s WALL (      19 calls)
     v_of_rho     :      1.22s CPU      0.13s WALL (      20 calls)
     v_h          :      0.64s CPU      0.07s WALL (      20 calls)
     v_xc         :      0.58s CPU      0.06s WALL (      20 calls)
     mix_rho      :      0.34s CPU      0.08s WALL (      19 calls)

     Called by c_bands:
     init_us_2    :      0.00s CPU      0.01s WALL (      39 calls)
     regterg      :      7.42s CPU      1.10s WALL (      19 calls)

     Called by sum_band:
     sum_band:wei :      0.00s CPU      0.00s WALL (      19 calls)
     sum_band:loo :      1.38s CPU      0.17s WALL (      19 calls)
     sum_band:buf :      0.00s CPU      0.00s WALL (      19 calls)
     sum_band:ini :      0.00s CPU      0.00s WALL (      19 calls)

     Called by *egterg:
     rdiaghg      :      0.00s CPU      0.02s WALL (      63 calls)
     regterg:over :      0.00s CPU      0.01s WALL (      51 calls)
     regterg:upda :      0.09s CPU      0.01s WALL (      51 calls)
     regterg:last :      0.00s CPU      0.01s WALL (      48 calls)
     h_psi        :      7.44s CPU      1.08s WALL (      71 calls)
     g_psi        :      0.00s CPU      0.00s WALL (      51 calls)

     Called by h_psi:
     h_psi:calbec :      0.00s CPU      0.01s WALL (      71 calls)
     vloc_psi     :      7.36s CPU      1.05s WALL (      71 calls)
     add_vuspsi   :      0.00s CPU      0.01s WALL (      71 calls)

     General routines
     calbec       :      0.00s CPU      0.02s WALL (     155 calls)
     fft          :      0.94s CPU      0.12s WALL (      52 calls)
     ffts         :      0.36s CPU      0.04s WALL (      19 calls)
     fftw         :      8.11s CPU      1.09s WALL (     419 calls)
     fftc         :      3.33s CPU      0.48s WALL (     210 calls)
     fftcw        :      1.67s CPU      0.24s WALL (      77 calls)
 
     Parallel routines

     EXX routines
     exx_grid     :      0.00s CPU      0.00s WALL (       1 calls)
     exxinit      :      0.95s CPU      0.17s WALL (       7 calls)
     vexx         :      6.31s CPU      1.01s WALL (       7 calls)
     matcalc      :      0.00s CPU      0.01s WALL (      84 calls)
     aceupdate    :      0.00s CPU      0.00s WALL (       7 calls)
     vexxace      :      0.08s CPU      0.02s WALL (      64 calls)
     aceinit      :      6.31s CPU      1.01s WALL (       7 calls)
 
     PWSCF        :     19.33s CPU      3.27s WALL

 
   This run was terminated on:  22:45: 6   9Dec2025            

=------------------------------------------------------------------------------=
   JOB DONE.
=------------------------------------------------------------------------------=
